TBT.Verbosity         5     # default value
SystemName           # default value
SystemLabel     graphene                                                                        
CDF.Compress         0     # default value
TBT.CDF.Compress         0     # default value
CDF.MPI              F     # default value
TBT.CDF.MPI              F     # default value
TBT.Directory           # default value
timer_report_threshold          0.000000000         # default value
alloc_report_level         0     # default value
alloc_report_threshold          0.000000000         # default value
TS.Voltage          0.000000000     Ry     # default value
TBT.Voltage          0.000000000     Ry     # default value
TBT.HS     graphene.TSHS     # default value
SpinPolarized              F     # default value
NonCollinearSpin              F     # default value
SpinOrbit              F     # default value
#:block? SpinPolarized              F
#:defined? SpinPolarized              F
#:block? NonCollinearSpin              F
#:defined? NonCollinearSpin              F
#:block? SpinOrbit              F
#:defined? SpinOrbit              F
Spin     none                                 # default value
TimeReversalSymmetry              T     # default value
#:block? TBT.Atoms.Buffer              F
#:defined? TBT.Atoms.Buffer              F
#:block? TS.BufferAtomsLeft              F
#:defined? TS.BufferAtomsLeft              F
#:block? TS.BufferAtomsRight              F
#:defined? TS.BufferAtomsRight              F
#:list? TS.Atoms.Buffer              F
TBT.DivideAndConquer              F     # default value
TBT.Normalize              T     # default value
ElectronicTemperature         0.1900086938E-02         Ry
# above item originally: ElectronicTemperature          300.0000000     K         
TS.ElectronicTemperature         0.1900086938E-02 Ry     # default value
TBT.ElectronicTemperature         0.1900086938E-02 Ry     # default value
%block TS.ChemPots
   Left
   Right
%endblock TS.ChemPots
TS.Contours.Eq.Pole.N         8     # default value
TS.Contours.Eq.Pole         0.1837466109             Ry
# above item originally: TS.Contours.Eq.Pole          2.500000000     eV        
%block TS.ChemPots
   Left
   Right
%endblock TS.ChemPots
%block TS.ChemPot.Left
   mu V/2
   contour.eq
     begin
       C-Left
       T-Left
     end
 #:(Backspace to) |    end|
 #:(Backspace to) |      T-Left|
 #:(Backspace to) |      C-Left|
       C-Left
       T-Left
     end
%endblock TS.ChemPot.Left
TS.Contours.Eq.Pole         0.1837466109             Ry
# above item originally: TS.Contours.Eq.Pole          2.500000000     eV        
%block TS.ChemPot.Right
   mu -V/2
   contour.eq
     begin
       C-Right
       T-Right
     end
 #:(Backspace to) |    end|
 #:(Backspace to) |      T-Right|
 #:(Backspace to) |      C-Right|
       C-Right
       T-Right
     end
%endblock TS.ChemPot.Right
TS.Contours.Eq.Pole         0.1837466109             Ry
# above item originally: TS.Contours.Eq.Pole          2.500000000     eV        
TS.Elecs.Coord.Eps         0.1889726125E-02 Bohr     # default value
TBT.Elecs.Coord.Eps         0.1889726125E-02 Bohr     # default value
%block TS.Elecs
   Left
   Right
%endblock TS.Elecs
%block TS.Elecs
   Left
   Right
%endblock TS.Elecs
TS.Elecs.Bulk              T     # default value
TBT.Elecs.Bulk              T     # default value
TS.Elecs.Eta         0.7349864435E-04 Ry     # default value
TBT.Elecs.Eta         0.7349864435E-04 Ry     # default value
TS.Elecs.Accuracy         0.7349864435E-14 Ry     # default value
TBT.Elecs.Accuracy         0.7349864435E-14 Ry     # default value
TBT.Elecs.Out-of-core              F     # default value
TS.Elecs.GF.ReUse              T     # default value
TBT.Elecs.GF.ReUse              T     # default value
TBT.Elecs.GF.Only              F     # default value
#:block? TBT.Elec.Left.HS              F
#:defined? TBT.Elec.Left.HS              F
TBT.Elec.Left.Bloch.A1         1     # default value
TBT.Elec.Left.Bloch.A2         1     # default value
TBT.Elec.Left.Bloch.A3         1     # default value
#:block? TBT.Elec.Left.GF              F
#:defined? TBT.Elec.Left.GF              F
#:block? TS.Elec.Left.HS              F
#:defined? TS.Elec.Left.HS              F
TS.Elec.Left.Bloch.A1         1     # default value
TS.Elec.Left.Bloch.A2         1     # default value
TS.Elec.Left.Bloch.A3         1     # default value
#:block? TS.Elec.Left.GF              F
#:defined? TS.Elec.Left.GF              F
%block TS.Elec.Left
TS.Elec.Left.UsedAtoms        -1     # default value
   HS electrode/electrode.TSHS
   chemical-potential Left
   semi-inf-direction -a1
   electrode-position 1
%endblock TS.Elec.Left
#:block? TBT.Elec.Right.HS              F
#:defined? TBT.Elec.Right.HS              F
TBT.Elec.Right.Bloch.A1         1     # default value
TBT.Elec.Right.Bloch.A2         1     # default value
TBT.Elec.Right.Bloch.A3         1     # default value
#:block? TBT.Elec.Right.GF              F
#:defined? TBT.Elec.Right.GF              F
#:block? TS.Elec.Right.HS              F
#:defined? TS.Elec.Right.HS              F
TS.Elec.Right.Bloch.A1         1     # default value
TS.Elec.Right.Bloch.A2         1     # default value
TS.Elec.Right.Bloch.A3         1     # default value
#:block? TS.Elec.Right.GF              F
#:defined? TS.Elec.Right.GF              F
%block TS.Elec.Right
TS.Elec.Right.UsedAtoms        -1     # default value
   HS electrode/electrode.TSHS
   chemical-potential Right
   semi-inf-direction +a1
   electrode-position end -1
%endblock TS.Elec.Right
TBT.k.File     NONE     # default value
SpinSpiral              F     # default value
TBT.Symmetry.TimeReversal              F
#:list? TBT.k              T
#:list? TBT.k              T
TBT.k              3
TBT.Progress          5.000000000         # default value
TBT.SolutionMethod     BTD     # default value
TS.BTD.Optimize     speed     # default value
TBT.BTD.Optimize     speed     # default value
TS.BTD.Spectral     propagation     # default value
TBT.BTD.Spectral     propagation     # default value
TBT.T.Elecs.All              F     # default value
TBT.T.All              T
TBT.T.Eig              2
TBT.DOS.Elecs              T
TBT.T.Bulk              F     # default value
TBT.DOS.Gf              T
TBT.DOS.A              T
TBT.DOS.A.All              T
TBT.Current.Orb              T
TBT.DM.Gf              F     # default value
TBT.DM.A              F     # default value
TBT.COOP.Gf              T
TBT.COOP.A              T
TBT.COHP.Gf              T
TBT.COHP.A              T
TBT.T.Out              T
TBT.CDF.SelfEnergy.Save              F     # default value
TBT.SelfEnergy.Save              F     # default value
CDF.Compress         0     # default value
TBT.CDF.Compress         0     # default value
TBT.CDF.SelfEnergy.Compress         0     # default value
TBT.CDF.MPI              F     # default value
TBT.CDF.SelfEnergy.MPI              F     # default value
#:block? TBT.dH              F
#:defined? TBT.dH              F
#:block? TBT.dSE              F
#:defined? TBT.dSE              F
TBT.Contours.Eta         0.7349864435E-05 Ry     # default value
TS.Voltage          0.000000000     Ry     # default value
TBT.Voltage          0.000000000     Ry     # default value
#:block-line-count? TBT.Contours (n)   1
%block TBT.Contours
     line
%endblock TBT.Contours
%block TBT.Contour.line
   part line
      from -1. eV to 1. eV
       delta 0.5 eV
         method mid-rule
%endblock TBT.Contour.line
#:block? TBT.Projs              F
#:defined? TBT.Projs              F
TBT.CDF.Precision     single     # default value
SpinSpiral              F     # default value
TBT.Symmetry.TimeReversal              F
#:list? TBT.Atoms.Device              F
TBT.Atoms.Device.Connect              F     # default value
TBT.BTD.Pivot.Elecs     atom+Left     # default value
TBT.BTD.Pivot.Elec.Left     atom+Left     # default value
TBT.BTD.Pivot.Graphviz              F     # default value
TBT.BTD.Pivot.Graphviz              F     # default value
TBT.Analyze              F     # default value
TS.BTD.Pivot     atom+Left     # default value
TBT.BTD.Pivot     atom+Left     # default value
TBT.BTD.Pivot.Device     atom+Left     # default value
TBT.BTD.Pivot.Graphviz              F     # default value
TBT.Region.k              F     # default value
TS.BTD.Guess1.Min         3     # default value
TBT.BTD.Guess1.Min         3     # default value
TS.BTD.Guess1.Step         1     # default value
TBT.BTD.Guess1.Step         1     # default value
TS.BTD.Guess1.Max        10     # default value
TBT.BTD.Guess1.Max        10     # default value
TS.BTD.Output           # default value
TBT.Analyze              F     # default value
TS.BTD.Guess1.Min         3     # default value
TBT.BTD.Guess1.Min         3     # default value
TS.BTD.Guess1.Step         1     # default value
TBT.BTD.Guess1.Step         1     # default value
TS.BTD.Guess1.Max        12     # default value
TBT.BTD.Guess1.Max        12     # default value
TS.BTD.Output           # default value
TBT.CDF.Precision     single     # default value
TBT.CDF.DOS.Precision     single                   # default value
TBT.CDF.Precision     single     # default value
TBT.CDF.T.Precision     single                   # default value
TBT.CDF.Precision     single     # default value
TBT.CDF.T.Eig.Precision     single                   # default value
TBT.CDF.Precision     single     # default value
TBT.CDF.Current.Precision     single                   # default value
TBT.CDF.Precision     single     # default value
TBT.CDF.COOP.Precision     single                   # default value
TBT.CDF.Precision     single     # default value
TBT.CDF.COHP.Precision     single                   # default value
TBT.CDF.Precision     single     # default value
TBT.CDF.DM.Precision     single                   # default value
