SystemName           # default value
SystemLabel     graphene                                                                        
SpinPolarized              F     # default value
NonCollinearSpin              F     # default value
SpinOrbit              F     # default value
#:block? SpinPolarized              F
#:defined? SpinPolarized              F
#:block? NonCollinearSpin              F
#:defined? NonCollinearSpin              F
#:block? SpinOrbit              F
#:defined? SpinOrbit              F
Spin     none                                 # default value
TimeReversalSymmetry              T     # default value
DebugObjects.Node         0     # default value
DebugObjects              F     # default value
XML.Write              F     # default value
timer_report_threshold          0.000000000         # default value
UseParallelTimer              T     # default value
UseTreeTimer              F     # default value
timing-split-scf-steps              F     # default value
use-walltime              F     # default value
alloc_report_level         0     # default value
alloc_report_threshold          0.000000000         # default value
xc.functional     LDA                                                                             
xc.authors     PZ                                                                              
#:block? XC.hybrid              F
#:defined? XC.hybrid              F
#:block? XC.cocktail              F
#:defined? XC.cocktail              F
MM.Cutoff          30.00000000     Bohr     # default value
MM.UnitsEnergy     eV     # default value
MM.UnitsDistance     Ang     # default value
Atom.Debug              F     # default value
WriteIonPlotFiles              F     # default value
Atom.Debug.KB.Generation              F     # default value
KB.New.Reference.Orbitals              F     # default value
user-basis              F     # default value
user-basis-netcdf              F     # default value
#:block? DFTU.proj              F
#:defined? DFTU.proj              F
#:block? LDAU.proj              F
#:defined? LDAU.proj              F
Number_of_species              1
%block Chemical_species_label
  1 6 C
%endblock Chemical_species_label
ReparametrizePseudos              T     # default value
NewAParameter         0.1000000000E-02     # default value
NewBParameter         0.1000000000E-01     # default value
NewGridRmax          0.000000000         # default value
Restricted.Radial.Grid              T     # default value
Rmax.Radial.Grid          50.00000000         # default value
PAO.BasisSize     SZ                                                                              
PAO.BasisType     split                                                                           
PAO.SoftDefault              T     # default value
PAO.SoftInnerRadius         0.9000000000         # default value
PAO.SoftPotential          40.00000000         # default value
PAO.SplitNorm         0.1500000000    
PAO.SplitNormH         -1.000000000         # default value
PAO.Polarization.NonPerturbative              F     # default value
PAO.NonPerturbative.Polarization.Orbitals              F     # default value
PAO.Polarization.NonPerturbative.Fallback              T     # default value
%block PS.lmax
   C 2
%endblock PS.lmax
LDAU.ProjectorGenerationMethod         2     # default value
DFTU.ProjectorGenerationMethod         2     # default value
LDAU.EnergyShift         0.5000000000E-01 Ry     # default value
DFTU.EnergyShift         0.5000000000E-01 Ry     # default value
LDAU.CutoffNorm         0.9000000000         # default value
DFTU.CutoffNorm         0.9000000000         # default value
PAO.SoftDefault              T     # default value
PAO.SoftInnerRadius         0.9000000000         # default value
PAO.SoftPotential          40.00000000         # default value
LDAU.ThresholdTol         0.1000000000E-01     # default value
DFTU.ThresholdTol         0.1000000000E-01     # default value
LDAU.PopTol         0.1000000000E-02     # default value
DFTU.PopTol         0.1000000000E-02     # default value
LDAU.PotentialShift              F     # default value
DFTU.PotentialShift              F     # default value
LDAU.FirstIteration              F     # default value
DFTU.FirstIteration              F     # default value
FilterCutoff          0.000000000     Ry     # default value
FilterTol          0.000000000     Ry     # default value
PAO.SplitValence.Legacy              F     # default value
PAO.SplitTailNorm              T     # default value
spin-orbit-strength          1.000000000         # default value
Use.PSML.KB.Projectors              T     # default value
Use.PSML.Vlocal              T     # default value
PSML.KB.Projectors              T     # default value
PSML.Vlocal              T     # default value
psml.chlocal.build.r0         0.4000000000E-02     # default value
psml.chlocal.build.delta         0.5000000000E-02     # default value
psml.chlocal.build.poly_order_rlin         4     # default value
chlocal-use-charge-cutoff-for-vlocal-fit              F     # default value
psml.chlocal.build.rr1         0.1000000000E-02     # default value
psml.chlocal.build.exp_al          1.012000000         # default value
psml.chlocal.build.poly_order_rofi         7     # default value
PAO.EnergyShift         0.2204959331E-01         Ry
# above item originally: PAO.EnergyShift          300.0000000     meV       
PAO.Filter              F     # default value
PAO.Filter              F     # default value
PAO.OldStylePolorbs              F     # default value
Vna.Filter              F     # default value
PCC.Filter              F     # default value
PAO.BasisType     split                                                                           
Debug.Elec.Corr              F     # default value
Atom-Setup-Only              F     # default value
UseStructFile              F     # default value
MD.UseStructFile              F     # default value
#:block? LatticeParameters              F
%block LatticeVectors
LatticeConstant          1.889726125           Bohr
# above item originally: LatticeConstant          1.000000000     Ang       
  26.01000000 -15.01688050 0.00000000
  2.16750000 1.25140671 0.00000000
  0.00000000 0.00000000 14.45000000
%endblock LatticeVectors
AtomicCoordinatesFormat     Ang                                                                             
NumberOfAtoms             24
#:block? AtomicCoordinatesOrigin              F
#:defined? AtomicCoordinatesOrigin              F
ZM.UnitsLength     Bohr           # default value
ZM.UnitsAngle     rad            # default value
ZM.ForceTolLength         0.1555740000E-02 Ry/Bohr     # default value
ZM.ForceTolAngle         0.3565490000E-02 Ry/rad     # default value
ZM.MaxDisplLength         0.2000000000     Bohr     # default value
ZM.MaxDisplAngle         0.3000000000E-02 rad     # default value
ZM.CalcAllForces              F     # default value
%block AtomicCoordinatesAndAtomicSpecies
    0.00000000   0.00000000   0.00000000 1 #  1: C
    1.44500000   0.00000000   0.00000000 1 #  2: C
    2.16750000  -1.25140671   0.00000000 1 #  3: C
    3.61250000  -1.25140671   0.00000000 1 #  4: C
    4.33500000  -2.50281342   0.00000000 1 #  5: C
    5.78000000  -2.50281342   0.00000000 1 #  6: C
    6.50250000  -3.75422013   0.00000000 1 #  7: C
    7.94750000  -3.75422013   0.00000000 1 #  8: C
    8.67000000  -5.00562683   0.00000000 1 #  9: C
   10.11500000  -5.00562683   0.00000000 1 # 10: C
   10.83750000  -6.25703354   0.00000000 1 # 11: C
   12.28250000  -6.25703354   0.00000000 1 # 12: C
   13.00500000  -7.50844025   0.00000000 1 # 13: C
   14.45000000  -7.50844025   0.00000000 1 # 14: C
   15.17250000  -8.75984696   0.00000000 1 # 15: C
   16.61750000  -8.75984696   0.00000000 1 # 16: C
   17.34000000 -10.01125367   0.00000000 1 # 17: C
   18.78500000 -10.01125367   0.00000000 1 # 18: C
   19.50750000 -11.26266038   0.00000000 1 # 19: C
   20.95250000 -11.26266038   0.00000000 1 # 20: C
   21.67500000 -12.51406708   0.00000000 1 # 21: C
   23.12000000 -12.51406708   0.00000000 1 # 22: C
   23.84250000 -13.76547379   0.00000000 1 # 23: C
   25.28750000 -13.76547379   0.00000000 1 # 24: C
%endblock AtomicCoordinatesAndAtomicSpecies
UseSaveData              F     # default value
MD.UseSaveXV              F     # default value
MD.UseSaveZM              F     # default value
WriteCoorInitial              T     # default value
MD.TypeOfRun     none     # default value
MD.TypeOfRun     CG     # default value
MD.TypeOfRun     none     # default value
MaxBondDistance          6.000000000     Bohr     # default value
Output-Structure-Only              F     # default value
WriteCoorXmol              F     # default value
#:physical? MaxWalltime              F
MaxWalltime         0.1797693135+309     # default value
#:physical? MaxWalltime.Slack              F
MaxWalltime.Slack          5.000000000         # default value
HSetupOnly              F     # default value
LongOutput              F     # default value
WriteDenchar              F     # default value
WriteMullikenPop              1
WriteOrbMom              F     # default value
WriteHirshfeldPop              F     # default value
WriteVoronoiPop              F     # default value
PartialChargesAtEveryGeometry              F     # default value
PartialChargesAtEveryScfStep              F     # default value
MeshCutoff          250.0000000             Ry
# above item originally: MeshCutoff          250.0000000     Ry        
NetCharge          0.000000000         # default value
MinSCFIterations              3
MaxSCFIterations            200
SCF.MustConverge              T     # default value
#:block? TS.MixH              F
#:defined? TS.MixH              F
#:block? MixHamiltonian              F
#:defined? MixHamiltonian              F
#:block? MixCharge              F
#:defined? MixCharge              F
TS.MixH              T     # default value
MixHamiltonian              T     # default value
MixCharge              F     # default value
SCF.Mix     Hamiltonian     # default value
Compat-pre-v4-DM-H              F     # default value
SCF.MixAfterConvergence              F     # default value
SCF.Recompute-H-After-Scf              F     # default value
DM.NumberPulay              6
DM.NumberBroyden         0     # default value
DM.FIRE.Mixing              F     # default value
DM.MixSCF1              T
SCF.Mix.First              T     # default value
SCF.Mix.First.Force              F     # default value
DM.PulayOnFile              F     # default value
DM.MixingWeight         0.1000000000    
DM.OccupancyTolerance         0.1000000000E-11     # default value
DM.NumberKick         0     # default value
DM.KickMixingWeight         0.5000000000         # default value
DM.RequireHarrisConvergence              F     # default value
SCF.Harris.Converge              F     # default value
DM.HarrisTolerance         0.7349864435E-05 Ry     # default value
SCF.Harris.Tolerance         0.7349864435E-05 Ry     # default value
SCF.DM.Converge              T     # default value
DM.Tolerance         0.1000000000E-03
SCF.DM.Tolerance         0.1000000000E-03     # default value
SCF.EDM.Converge              F     # default value
SCF.EDM.Tolerance         0.7349864435E-04 Ry     # default value
SCF.H.Converge              T     # default value
SCF.H.Tolerance         0.7349864435E-04 Ry     # default value
DM.RequireEnergyConvergence              F     # default value
SCF.FreeE.Converge              F     # default value
DM.EnergyTolerance         0.7349864435E-05 Ry     # default value
SCF.FreeE.Tolerance         0.7349864435E-05 Ry     # default value
MonitorForcesInSCF              F     # default value
SCF.MonitorForces              F     # default value
DFTD3              F     # default value
UseSaveData              F     # default value
#:block? UseSaveData              F
#:defined? UseSaveData              F
DM.UseSaveDM              T
NeglNonOverlapInt              F     # default value
SolutionMethod     transiesta                                                                      
ElectronicTemperature         0.1900086938E-02         Ry
# above item originally: ElectronicTemperature          300.0000000     K         
FixSpin              F     # default value
Spin.Fix              F     # default value
ON.MaxNumIter      1000     # default value
ON.etol         0.1000000000E-07     # default value
ON.eta          0.000000000     Ry     # default value
ON.eta_alpha          0.000000000     Ry     # default value
ON.eta_beta          0.000000000     Ry     # default value
On.RcLWF          9.500000000     Bohr     # default value
ON.UseSaveLWF              F     # default value
ON.functional     kim     # default value
ON.ChemicalPotentialUse              F     # default value
ON.ChemicalPotential              F     # default value
ON.ChemicalPotentialRc          9.500000000     Bohr     # default value
ON.ChemicalPotentialTemperature         0.5000000000E-01 Ry     # default value
ON.ChemicalPotentialOrder       100     # default value
TDED.WF.Initialize              F     # default value
TDED.Saverho              F     # default value
TDED.Nsaverho       100     # default value
TDED.Write.Etot              T     # default value
TDED.Write.Eig              F     # default value
TDED.Write.Dipole              F     # default value
TDED.Extrapolate              F     # default value
TDED.TimeStep         0.1000000000E-02 fs     # default value
TDED.Nsteps         1     # default value
TDED.Extrapolate.Substeps         3     # default value
TDED.Inverse.Linear              T     # default value
TDED.WF.Save              F     # default value
MD.VariableCell              F     # default value
compat-pre-v4-dynamics              F     # default value
MD.TypeOfRun     cg     # default value
MD.UseSaveCG              F     # default value
Optim.Broyden              F     # default value
#:block? Optim.Broyden              F
#:defined? Optim.Broyden              F
MD.NumCGsteps              0
MD.Steps         0     # default value
MD.MaxCGDispl         0.2000000000     Bohr     # default value
MD.MaxDispl         0.2000000000     Bohr     # default value
MD.MaxForceTol         0.1555740000E-02 Ry/Bohr     # default value
MD.MaxStressTol         0.6797730000E-04 Ry/Bohr**3     # default value
GeometryMustConverge              F     # default value
MD.InitialTimeStep         1     # default value
#:block? MD.Steps              F
#:defined? MD.Steps              F
MD.FinalTimeStep         1     # default value
MD.LengthTimeStep          1.000000000     fs     # default value
MD.Quench              F     # default value
MD.FireQuench              F     # default value
MD.InitialTemperature          0.000000000     K     # default value
MD.TargetTemperature          0.000000000     K     # default value
#:block? MD.TargetPressure              F
#:defined? MD.TargetPressure              F
MD.TargetPressure          0.000000000     Ry/Bohr**3     # default value
Target.Pressure          0.000000000     Ry/Bohr**3     # default value
MD.NoseMass          100.0000000     Ry*fs**2     # default value
MD.ParrinelloRahmanMass          100.0000000     Ry*fs**2     # default value
MD.AnnealOption     TemperatureAndPressure     # default value
MD.TauRelax          100.0000000     fs     # default value
MD.BulkModulus         0.6797730000E-02 Ry/Bohr**3     # default value
MD.FCDispl         0.4000000000E-01 Bohr     # default value
MD.FCfirst         1     # default value
MD.FClast        24     # default value
UseSpatialDecomposition              F     # default value
UseDomainDecomposition              F     # default value
SCF.Mix.Spin     all     # default value
Mixer.Debug              F     # default value
Mixer.Debug.MPI              F     # default value
DM.NumberPulay              6
DM.NumberBroyden         0     # default value
DM.MixingWeight         0.1000000000    
DM.NumberKick         0     # default value
DM.KickMixingWeight         0.5000000000         # default value
SCF.LinearMixingAfterPulay              F     # default value
SCF.MixingWeightAfterPulay         0.1000000000         # default value
SCF.Mixer.History         6     # default value
SCF.Mixer.Weight         0.1000000000         # default value
SCF.Mixer.Kick         0     # default value
SCF.Mixer.Kick.Weight         0.5000000000         # default value
SCF.Mixer.Restart         0     # default value
SCF.Mixer.Restart.Save         1     # default value
SCF.Mixer.Method     Pulay     # default value
SCF.Mixer.Variant     original     # default value
SCF.Mixer.Linear.After        -1     # default value
SCF.Mixer.Linear.After.Weight         0.1000000000         # default value
#:block? ChargeGeometries              F
#:defined? ChargeGeometries              F
#:block? ChargeGeometries              F
#:defined? ChargeGeometries              F
BulkBias.V          0.000000000     Ry     # default value
BulkBias.Voltage          0.000000000     Ry     # default value
BulkBias.Tolerance         0.1000000000E-14     # default value
BulkBias.Current              T     # default value
Harris_functional              F     # default value
ForceAuxCell              F     # default value
#:block? Optim.Broyden.History.Steps              F
#:defined? Optim.Broyden.History.Steps              F
#:block? Optim.Broyden.Cycle.On.Maxit              F
#:defined? Optim.Broyden.Cycle.On.Maxit              F
#:block? Optim.Broyden.Variable.Weight              F
#:defined? Optim.Broyden.Variable.Weight              F
#:block? Optim.Broyden.Debug              F
#:defined? Optim.Broyden.Debug              F
#:block? Optim.Broyden.Initial.Inverse.Jacobian              F
#:defined? Optim.Broyden.Initial.Inverse.Jacobian              F
Write.Kpoints              F     # default value
Write.Forces              T
Write.DM              T     # default value
Write.DM.End.Of.Cycle              T     # default value
Write.H              F     # default value
Write.H.End.Of.Cycle              F     # default value
Write.DM.NetCDF              F     # default value
WriteDM.History.NetCDF              F     # default value
WriteDMHS.NetCDF              F     # default value
WriteDMHS.History.NetCDF              F     # default value
SCF.Read.Charge.NetCDF              F     # default value
SCF.Read.Deformation.Charge.NetCDF              F     # default value
Write.TSHS.History              F     # default value
SaveInitialChargeDensity              F     # default value
AnalyzeChargeDensityOnly              F     # default value
UseNewDiagk              F     # default value
Diag.WFS.Cache     none     # default value
WriteBands              F     # default value
WriteKbands              F     # default value
WriteEigenvalues              F     # default value
WriteCoorStep              F     # default value
WriteMDhistory              F     # default value
WriteMDXmol              T     # default value
WriteOrbitalIndex              T     # default value
Write.Graphviz     none     # default value
WriteCoorStep              F     # default value
SaveHS              T
ReInitialiseDM              T     # default value
DM.AllowReuse              T     # default value
DM.AllowExtrapolation              T     # default value
DM.History.Depth         1     # default value
DM.NormalizationTolerance         0.1000000000E-04     # default value
DM.NormalizeDuringSCF              T     # default value
MullikenInSCF              F     # default value
SpinInSCF              F     # default value
WarningMinimumAtomicDistance          1.000000000     Bohr     # default value
BornCharge              F     # default value
ChangeKgridInMD              T     # default value
MD.RelaxCellOnly              F     # default value
MD.RemoveIntraMolecularPressure              F     # default value
COOP.Write              F     # default value
SaveRho              F     # default value
SaveDeltaRho              F     # default value
SaveRhoXC              F     # default value
SaveElectrostaticPotential              F     # default value
SaveNeutralAtomPotential              F     # default value
SaveTotalPotential              F     # default value
SaveIonicCharge              F     # default value
SaveBaderCharge              F     # default value
SaveTotalCharge              F     # default value
Siesta2Wannier90.WriteMmn              F     # default value
Siesta2Wannier90.WriteUnk              F     # default value
Siesta2Wannier90.WriteAmn              F     # default value
Siesta2Wannier90.WriteEig              F     # default value
#:block? Siesta2Wannier90.NumberOfBandsUp              F
#:defined? Siesta2Wannier90.NumberOfBandsUp              F
#:block? Siesta2Wannier90.NumberOfBandsDown              F
#:defined? Siesta2Wannier90.NumberOfBandsDown              F
#:block? Siesta2Wannier90.NumberOfBands              F
#:defined? Siesta2Wannier90.NumberOfBands              F
Siesta2Wannier90.NumberOfBandsUp         0     # default value
Siesta2Wannier90.NumberOfBandsDown         0     # default value
Siesta2Wannier90.NumberOfBands         0     # default value
CDF.Save              F     # default value
CDF.Compress         0     # default value
CDF.MPI              F     # default value
CDF.Read.Parallel              F     # default value
#:block-line-count? Wannier.Manifolds   0
Wannier.Manifolds.R.between              F     # default value
Wannier.Manifold.IndexPerturbed         1     # default value
Wannier.Mmn.Diagonal              F     # default value
DM.AllowReuse              T     # default value
DM.AllowExtrapolation              T     # default value
DM.AllowExtrapolation              F     # default value
NumberOfEigenStates        96     # default value
RcSpatial          0.000000000     Bohr     # default value
ProcessorGridX         1     # default value
ProcessorGridY         1     # default value
ProcessorGridZ         1     # default value
FFT.ProcessorY.traditional              F     # default value
processorY         1     # default value
blocksize        25     # default value
Spin.Spiral              F     # default value
TimeReversalSymmetryForKpoints              T     # default value
%block kgrid.MonkhorstPack
       3    0    0    0.0
       0   51    0    0.0
       0    0    1    0.0
%endblock kgrid.MonkhorstPack
#:block? ProjectedDensityOfStates              F
#:block? LocalDensityOfStates              F
Diag.ParallelOverK              F     # default value
#:block? Diag.ELPA.UseGPU              F
#:defined? Diag.ELPA.UseGPU              F
Diag.ELPA.UseGPU              F     # default value
Diag.ELPA.GPU              F     # default value
diag-elpa-gpu-string     nvidia-gpu                                                                                                                           # default value
Diag.ProcessorY         2     # default value
Diag.BlockSize        25     # default value
Diag.Use2D              T     # default value
Diag.UpperLower     lower     # default value
Diag.DivideAndConquer              T     # default value
Diag.MRRR              F     # default value
Diag.ELPA              F     # default value
Diag.NoExpert              F     # default value
Diag.Algorithm     Divide-and-Conquer     # default value
Diag.AbsTol         0.1000000000E-15     # default value
Diag.OrFac         0.1000000000E-05     # default value
Diag.Memory          1.000000000         # default value
#:block? BandLines              F
#:defined? BandLines              F
#:block? BandPoints              F
#:defined? BandPoints              F
LongOutput              F     # default value
WriteWaveFunctions              F     # default value
#:block-line-count? MetaForce (iirrr)   0
#:block? TS.BufferAtomsLeft              F
#:defined? TS.BufferAtomsLeft              F
#:block? TS.BufferAtomsRight              F
#:defined? TS.BufferAtomsRight              F
#:list? TS.Atoms.Buffer              F
TS.HS.Save              F     # default value
TS.DE.Save              F     # default value
TS.onlyS              F     # default value
TS.S.Save              F     # default value
TS.Voltage.FromSiesta              F     # default value
Mixer.Debug              F     # default value
Mixer.Debug.MPI              F     # default value
TS.SCF.DM.Tolerance         0.1000000000E-03     # default value
TS.SCF.H.Tolerance         0.7349864435E-04     # default value
TS.SCF.Mix.History.Keep         0     # default value
TS.SIESTA.Only              F     # default value
TS.SolutionMethod     BTD     # default value
SCF.Initialize     diagon     # default value
TS.SCF.Initialize     diagon                                                                                                                                                                                                       # default value
TS.BTD.Optimize     speed     # default value
TS.Analyze              F     # default value
TS.ChargeCorrection     none     # default value
TS.dQ     none                                                                 # default value
TS.ChargeCorrection.Fermi.Tolerance         0.1000000000E-01     # default value
TS.dQ.Fermi.Tolerance         0.1000000000E-01     # default value
TS.ChargeCorrection.Fermi.Max         0.1102479665     Ry     # default value
TS.dQ.Fermi.Max         0.1102479665     Ry     # default value
TS.dQ.Fermi.Scale          50.00000000         # default value
TS.dQ.Fermi.Eta         0.7349864435E-04 Ry     # default value
TS.ChargeCorrection.Factor         0.8000000000         # default value
TS.dQ.Factor         0.8000000000         # default value
TS.Weight.k.Method     correlated     # default value
TS.Weight.Method     orb-orb     # default value
TS.Forces              T     # default value
TS.ElectronicTemperature         0.1900086938E-02 Ry     # default value
TS.Voltage          0.000000000     Ry     # default value
%block TS.ChemPots
   Left
   Right
%endblock TS.ChemPots
TS.Contours.Eq.Pole.N         8     # default value
TS.Contours.Eq.Pole         0.1837466109             Ry
# above item originally: TS.Contours.Eq.Pole          2.500000000     eV        
%block TS.ChemPots
   Left
   Right
%endblock TS.ChemPots
%block TS.ChemPot.Left
   mu V/2
   contour.eq
     begin
       C-Left
       T-Left
     end
 #:(Backspace to) |    end|
 #:(Backspace to) |      T-Left|
 #:(Backspace to) |      C-Left|
       C-Left
       T-Left
     end
%endblock TS.ChemPot.Left
TS.Contours.Eq.Pole         0.1837466109             Ry
# above item originally: TS.Contours.Eq.Pole          2.500000000     eV        
%block TS.ChemPot.Right
   mu -V/2
   contour.eq
     begin
       C-Right
       T-Right
     end
 #:(Backspace to) |    end|
 #:(Backspace to) |      T-Right|
 #:(Backspace to) |      C-Right|
       C-Right
       T-Right
     end
%endblock TS.ChemPot.Right
TS.Contours.Eq.Pole         0.1837466109             Ry
# above item originally: TS.Contours.Eq.Pole          2.500000000     eV        
#:block? TS.GFTitle              F
#:defined? TS.GFTitle              F
#:block? TS.HSFileLeft              F
#:defined? TS.HSFileLeft              F
#:block? TS.GFFileLeft              F
#:defined? TS.GFFileLeft              F
#:block? TS.NumUsedAtomsLeft              F
#:defined? TS.NumUsedAtomsLeft              F
#:block? TS.ReplicateA1Left              F
#:defined? TS.ReplicateA1Left              F
#:block? TS.ReplicateA2Left              F
#:defined? TS.ReplicateA2Left              F
#:block? TS.HSFileRight              F
#:defined? TS.HSFileRight              F
#:block? TS.GFFileRight              F
#:defined? TS.GFFileRight              F
#:block? TS.NumUsedAtomsRight              F
#:defined? TS.NumUsedAtomsRight              F
#:block? TS.ReplicateA1Right              F
#:defined? TS.ReplicateA1Right              F
#:block? TS.ReplicateA2Right              F
#:defined? TS.ReplicateA2Right              F
#:block? TS.UpdateDMCROnly              F
#:defined? TS.UpdateDMCROnly              F
#:block? TS.UseBulk              F
#:defined? TS.UseBulk              F
#:block? TS.CalcGF              F
#:defined? TS.CalcGF              F
#:block? TS.ReUseGF              F
#:defined? TS.ReUseGF              F
TS.Elecs.Coord.Eps         0.1889726125E-02 Bohr     # default value
%block TS.Elecs
   Left
   Right
%endblock TS.Elecs
%block TS.Elecs
   Left
   Right
%endblock TS.Elecs
TS.Elecs.Accuracy         0.7349864435E-14 Ry     # default value
TS.Elecs.Eta         0.7349864435E-04 Ry     # default value
TS.Elecs.Bulk              T     # default value
TS.Elecs.DM.Update     cross-terms     # default value
TS.Elecs.DM.Init     diagon     # default value
TS.Elecs.GF.ReUse              T     # default value
TS.Elecs.Out-of-core              T     # default value
#:block? TS.Elec.Left.HS              F
#:defined? TS.Elec.Left.HS              F
TS.Elec.Left.Bloch.A1         1     # default value
TS.Elec.Left.Bloch.A2         1     # default value
TS.Elec.Left.Bloch.A3         1     # default value
#:block? TS.Elec.Left.GF              F
#:defined? TS.Elec.Left.GF              F
%block TS.Elec.Left
TS.Elec.Left.UsedAtoms        -1     # default value
   HS electrode/electrode.TSHS
   chemical-potential Left
   semi-inf-direction -a1
   electrode-position 1
%endblock TS.Elec.Left
#:block? TS.Elec.Right.HS              F
#:defined? TS.Elec.Right.HS              F
TS.Elec.Right.Bloch.A1         1     # default value
TS.Elec.Right.Bloch.A2         1     # default value
TS.Elec.Right.Bloch.A3         1     # default value
#:block? TS.Elec.Right.GF              F
#:defined? TS.Elec.Right.GF              F
%block TS.Elec.Right
TS.Elec.Right.UsedAtoms        -1     # default value
   HS electrode/electrode.TSHS
   chemical-potential Right
   semi-inf-direction +a1
   electrode-position end -1
%endblock TS.Elec.Right
TS.Poisson     ramp     # default value
Spin.Spiral              F     # default value
TimeReversalSymmetryForKpoints              T     # default value
#:list? TS.kgrid.MonkhorstPack                                                                                                                                                                                                                                                        F
#:block? TS.kgrid.Cutoff                                                                                                                                                                                                                                                               F
#:defined? TS.kgrid.Cutoff                                                                                                                                                                                                                                                               F
#:block? TS.kgrid.File                                                                                                                                                                                                                                                                 F
#:defined? TS.kgrid.File                                                                                                                                                                                                                                                                 F
Spin.Spiral              F     # default value
TimeReversalSymmetryForKpoints              T     # default value
%block kgrid.MonkhorstPack
       3    0    0    0.0
       0   51    0    0.0
       0    0    1    0.0
%endblock kgrid.MonkhorstPack
TS.BTD.Spectral     propagation     # default value
TS.Hartree.Fix     A                                                                    # default value
TS.Hartree.Fix.Frac          1.000000000         # default value
TS.Hartree.Offset          0.000000000     Ry     # default value
#:block? TS.ComplexContour.NPoles              F
#:defined? TS.ComplexContour.NPoles              F
%block TS.Contour.C-Left
   part circle
    from -40. eV + V/2 to -10 kT + V/2
      points 25
       method g-legendre
%endblock TS.Contour.C-Left
%block TS.Contour.T-Left
   part tail
    from prev to inf
      points 10
       method g-fermi
%endblock TS.Contour.T-Left
TS.SCF.dQ.Tolerance         0.9600000000E-01     # default value
TS.SCF.dQ.Converge              T     # default value
TS.BTD.Pivot     atom+Left     # default value
TS.Contours.Eq.Pole.N         8     # default value
TS.Contours.Eq.Pole         0.1837466109             Ry
# above item originally: TS.Contours.Eq.Pole          2.500000000     eV        
TS.Atoms.Print              F     # default value
LUA.Interactive              F     # default value
LUA.Script           # default value
AtomicCoordinatesFormat     Ang                                                                             
AtomCoorFormatOut     Ang                        # default value
LatticeConstant          1.889726125           Bohr
# above item originally: LatticeConstant          1.000000000     Ang       
debug-folding              F     # default value
Save.Overlap.Gradient              F     # default value
Sonly              F     # default value
File.TSDE.Init     graphene.TSDE     # default value
File.DM.Init     graphene.DM     # default value
DM.Init     atomic     # default value
DM.Init.RandomStates         0     # default value
Sonly              F     # default value
Debug.DHSCF              F     # default value
MeshSubDivisions         2     # default value
#:list? Mesh.Sizes              F
#:block? MeshSizes              F
#:defined? MeshSizes              F
XC.Use.BSC.CellXC              F     # default value
PROCS_PER_NODE         4     # default value
PROCS_PER_NODE         4     # default value
DirectPhi              F     # default value
SimulateDoping              F     # default value
Slab.DipoleCorrection     none     # default value
Read-H-from-file              F     # default value
timing-split-scf-steps              F     # default value
SingleExcitation              F     # default value
OccupationFunction     FD                                                                              
OccupationFunction     FD                                                                              
timing-split-scf-steps              F     # default value
timing-split-scf-steps              F     # default value
timing-split-scf-steps              F     # default value
timing-split-scf-steps              F     # default value
timing-split-scf-steps              F     # default value
timing-split-scf-steps              F     # default value
TS.BTD.Pivot     atom+Left     # default value
TS.BTD.Guess1.Min         3     # default value
TS.BTD.Guess1.Step         1     # default value
TS.BTD.Guess1.Max        24     # default value
TS.BTD.Output           # default value
timing-split-scf-steps              F     # default value
timing-split-scf-steps              F     # default value
compute-forces              T     # default value
#:list? Grid.CellSampling              F
Read-H-from-file              F     # default value
WriteCoorXmol              F     # default value
WriteCoorCerius              F     # default value
BasisPressure         0.2000000000     GPa     # default value
OpticalCalculation              F     # default value
