Siesta Version  : NO_VERSION_LABEL_AVAILABLE
Architecture    : ----
Compiler version: GNU-13.2.1
Compiler flags  : -fallow-argument-mismatch;-O3 -march=native
PP flags        : ----
Libraries       : ----
Parallelisations: MPI
GEMM3M support
NetCDF support
NetCDF-4 support

Runtime information:
* Directory : /home/arnold/Documents/Code/SIESTA/ahkole-sisl-files/tests/sisl/io/siesta/stdout-charges/mulliken_voronoi_hirshfeld_pol_md
* Running in serial mode (only 1 MPI rank).
>> Start of run:  23-APR-2024  17:44:20

                           *********************** 
                           *  WELCOME TO SIESTA  * 
                           *********************** 

reinit: Reading from standard input
reinit: Dumping input in INPUT_TMP.08059
************************** Dump of input data file ****************************
LatticeConstant 1.0 Ang
%block LatticeVectors
 2.13000000 1.22975607 0.00000000
 2.13000000 -1.22975607 0.00000000
 0.00000000 0.00000000 14.20000000
%endblock LatticeVectors
NumberOfAtoms 2
AtomicCoordinatesFormat Ang
%block AtomicCoordinatesAndAtomicSpecies
 0.00000000 0.00000000 0.00000000 1 # 1: C
 1.38000000 0.00000000 0.00000000 1 # 2: C
%endblock AtomicCoordinatesAndAtomicSpecies
NumberOfSpecies 1
%block ChemicalSpeciesLabel
 1 6 C
%endblock ChemicalSpeciesLabel
MD.TypeOfRun cg
MD.Steps 2
WriteHirshfeldPop t
WriteVoronoiPop t
PartialChargesAtEveryGeometry t
#PartialChargesAtEverySCFStep t
Spin polarized
WriteMullikenPop 1
Write.DMHS.History.NetCDF t
************************** End of input data file *****************************

reinit: -----------------------------------------------------------------------
reinit: System Name: 
reinit: -----------------------------------------------------------------------
reinit: System Label: siesta
reinit: -----------------------------------------------------------------------

initatom: Reading input for the pseudopotentials and atomic orbitals ----------
Species number:   1 Atomic number:    6 Label: C


---- Processing specs for species: C
Ground state valence configuration:   2s02  2p02
Reading pseudopotential information in PSML from:
  C.psml
PSML file version: 1.1
Using libxc ids:  101 130
GGA--PBE XC_GGA_X_PBE--XC_GGA_C_PBE pb
PSML uuid: 87620340-470b-11e8-5ed8-8e87ed7edbb4

---- Pseudopotential check for C 

Pseudopotential generated from a fully relativistic atomic calculation
There are spin-orbit semi-local pseudopotentials available

Pseudized shells:
2s( 2.00) rc: 1.20
2p( 2.00) rc: 1.26
Valence configuration for ps generation: 2s:2p: Total charge:   4.000000
For C, standard SIESTA heuristics set lmxkb to 3
 (one more than the basis l, including polarization orbitals).
Use PS.lmax or PS.KBprojectors blocks to override.
C pseudopotential only contains V_ls up to l=1 -- lmxkb reset.

<basis_specs>
===============================================================================
C                    Z=   6    Mass=  12.011        Charge= 0.17977+309
Lmxo=2 Lmxkb= 1    BasisType=split      Semic=F
L=0  Nsemic=0  Cnfigmx=2
          i=1  nzeta=2  polorb=0  (2s)
            splnorm:   0.15000    
               vcte:    40.000    
               rinn:  -0.90000    
               qcoe:    0.0000    
               qyuk:    0.0000    
               qwid:   0.10000E-01
                rcs:    0.0000      0.0000    
            lambdas:    1.0000      1.0000    
L=1  Nsemic=0  Cnfigmx=2
          i=1  nzeta=2  polorb=1  (2p)  (to be polarized perturbatively)
            splnorm:   0.15000    
               vcte:    40.000    
               rinn:  -0.90000    
               qcoe:    0.0000    
               qyuk:    0.0000    
               qwid:   0.10000E-01
                rcs:    0.0000      0.0000    
            lambdas:    1.0000      1.0000    
L=2  Nsemic=0  Cnfigmx=3
          i=1  nzeta=0  polorb=0  (3d)  (perturbative polarization orbital) (from 2p)
-------------------------------------------------------------------------------
L=0  Nkbl=1  erefs: 0.17977+309
L=1  Nkbl=1  erefs: 0.17977+309
===============================================================================
</basis_specs>

Using PAO.SplitTailNorm
atom: Called for C                     (Z =   6)
NOTE: C pseudopotential has channels up to l= 1
NOTE: PAOs with higher l will be generated with V_local
Maximum radius (at nrval) set to   50.00000 8518

read_vps: Pseudopotential generation method:
read_vps: ONCVPSP-3.Hamann's oncvpsp                        
Valence charge in pseudo generation:    4.00000

read_vps: Pseudopotential includes a core correction:
read_vps: Pseudo-core for xc-correction

xc_check: Exchange-correlation functional:
xc_check: Ceperley-Alder
xc_check: WARNING: Pseudopotential generated with GGA PBE functional
Got Vlocal (oncv-fit) from psml data
Choosing vlocal chloc cutoff:  3.131907
qtot up to nchloc:    4.00001913
atom: Maximum radius for chlocal:    3.13191
atom: Maximum radius for r*vlocal+2*Zval:    3.13191
Reading KB projs from C psml data
Using (derived) scalar-relativistic projectors in PSML file

PSML: Kleinman-Bylander projectors: 
   l= 0   rc=  1.219773   Ekb=  0.771050
   l= 0   rc=  1.219773   Ekb= 12.962866
   l= 1   rc=  1.278952   Ekb= -8.399849
   l= 1   rc=  1.278952   Ekb= -1.755000

PSML: Total number of  Kleinman-Bylander projectors:   8
atom: -------------------------------------------------------------------------

atom: SANKEY-TYPE ORBITALS:
atom: Selected multiple-zeta basis: split     

SPLIT: Orbitals with angular momentum L= 0

SPLIT: Basis orbitals for state 2s

SPLIT: PAO cut-off radius determined from an
SPLIT: energy shift=  0.010000 Ry
Split based on tail norm

   izeta = 1
                 lambda =    1.000000
                     rc =    4.511437
                 energy =   -0.989120
                kinetic =    0.946579
    potential(screened) =   -1.935699
       potential(ionic) =   -5.498314

   izeta = 2
                 rmatch =    3.075858
              splitnorm =    0.150000
                 energy =   -0.700820
                kinetic =    1.771753
    potential(screened) =   -2.472573
       potential(ionic) =   -6.339178

SPLIT: Orbitals with angular momentum L= 1

SPLIT: Basis orbitals for state 2p

SPLIT: PAO cut-off radius determined from an
SPLIT: energy shift=  0.010000 Ry
Split based on tail norm

   izeta = 1
                 lambda =    1.000000
                     rc =    5.490449
                 energy =   -0.369555
                kinetic =    2.447706
    potential(screened) =   -2.817262
       potential(ionic) =   -6.234860

   izeta = 2
                 rmatch =    3.744030
              splitnorm =    0.150000
                 energy =   -0.241893
                kinetic =    3.581585
    potential(screened) =   -3.823478
       potential(ionic) =   -7.591537
*Note: V_local used for l= 2

** Using vlocal for PAOs with L= 2

POLgen: Perturbative polarization orbital with L=  2

POLgen: Polarization orbital for state 2p
*Note: V_local used for lpol= 2

** Using vlocal for PAOs with L= 2
Split based on tail norm

   izeta = 1
                     rc =    5.490449
                 energy =    1.132178
                kinetic =    2.236568
    potential(screened) =   -1.104389
       potential(ionic) =   -3.924652
atom: Total number of Sankey-type orbitals: 13

atm_pop: Valence configuration (for local Pseudopot. screening):
 2s( 2.00)                                                            
 2p( 2.00)                                                            
 3d( 0.00)                                                            
Vna: chval, zval:    4.00000   4.00000

Vna:  Cut-off radius for the neutral-atom potential:   5.490449
comcore: Pseudo-core radius Rcore=  1.671741

atom: _________________________________________________________________________

prinput: Basis input 

PAO.BasisType split     

%block ChemicalSpeciesLabel
    1    6 C                       # Species index, atomic number, species label
%endblock ChemicalSpeciesLabel

%block PAO.Basis                 # Define Basis set
# WARNING: This information might be incomplete!
C                     2                    # Species label, number of l-shells
 n=2   0   2                         # n, l, Nzeta 
   4.511      3.076   
   1.000      1.000   
 n=2   1   2 P   1                   # n, l, Nzeta, Polarization, NzetaPol
   5.490      3.744   
   1.000      1.000   
%endblock PAO.Basis

prinput: ----------------------------------------------------------------------

Dumping basis to NetCDF file C.ion.nc
coor:   Atomic-coordinates input format  =     Cartesian coordinates
coor:                                          (in Angstroms)

siesta: Atomic coordinates (Bohr) and species
siesta:      0.00000   0.00000   0.00000  1        1
siesta:      2.60782   0.00000   0.00000  1        2

siesta: System type = slab      

initatomlists: Number of atoms, orbitals, and projectors:      2    26    16

siesta: ******************** Simulation parameters ****************************
siesta:
siesta: The following are some of the parameters of the simulation.
siesta: A complete list of the parameters used, including default values,
siesta: can be found in file out.fdf
siesta:
redata: Spin configuration                          = collinear
redata: Number of spin components                   = 2
redata: Time-Reversal Symmetry                      = T
redata: Spin spiral                                 = F
redata: Long output                                 =   F
redata: Number of Atomic Species                    =        1
redata: Charge density info will appear in .RHO file
redata: Write Mulliken Pop.                         = Atomic and Orbital charges
redata: Matel table size (NRTAB)                    =     1024
redata: Mesh Cutoff                                 =   300.0000 Ry
redata: Net charge of the system                    =     0.0000 |e|
redata: Min. number of SCF Iter                     =        0
redata: Max. number of SCF Iter                     =     1000
redata: SCF convergence failure will abort job
redata: SCF mix quantity                            = Hamiltonian
redata: Mix DM or H after convergence               =   F
redata: Recompute H after scf cycle                 =   F
redata: Mix DM in first SCF step                    =   T
redata: Write Pulay info on disk                    =   F
redata: New DM Occupancy tolerance                  = 0.000000000001
redata: No kicks to SCF
redata: DM Mixing Weight for Kicks                  =     0.5000
redata: Require Harris convergence for SCF          =   F
redata: Harris energy tolerance for SCF             =     0.000100 eV
redata: Require DM convergence for SCF              =   T
redata: DM tolerance for SCF                        =     0.000100
redata: Require EDM convergence for SCF             =   F
redata: EDM tolerance for SCF                       =     0.001000 eV
redata: Require H convergence for SCF               =   T
redata: Hamiltonian tolerance for SCF               =     0.001000 eV
redata: Require (free) Energy convergence for SCF   =   F
redata: (free) Energy tolerance for SCF             =     0.000100 eV
redata: Antiferro initial spin density              =   F
redata: Using Saved Data (generic)                  =   F
redata: Use continuation files for DM               =   T
redata: Neglect nonoverlap interactions             =   F
redata: Method of Calculation                       = Diagonalization
redata: Electronic Temperature                      =   299.9863 K
redata: Fix the spin of the system                  =   F
redata: Max. number of TDED Iter                    =        1
redata: Number of TDED substeps                     =        3
redata: Dynamics option                             = CG coord. optimization
redata: Variable cell                               =   F
redata: Use continuation files for CG               =   F
redata: Max atomic displ per move                   =     0.1058 Ang
redata: Maximum number of optimization moves        =        2
redata: Force tolerance                             =     0.0400 eV/Ang
mix.SCF: Pulay mixing                            = Pulay
mix.SCF:    Variant                              = stable
mix.SCF:    History steps                        = 2
mix.SCF:    Linear mixing weight                 =     0.250000
mix.SCF:    Mixing weight                        =     0.250000
mix.SCF:    SVD condition                        = 0.1000E-07
mix.SCF: Spin-component mixing                   all
redata: Save all siesta data in one NC              =   F
redata: ***********************************************************************

%block SCF.Mixers
  Pulay
%endblock SCF.Mixers

%block SCF.Mixer.Pulay
  # Mixing method
  method pulay
  variant stable

  # Mixing options
  weight 0.2500
  weight.linear 0.2500
  history 2
%endblock SCF.Mixer.Pulay

DM_history_depth set to one: no extrapolation allowed by default for geometry relaxation
Size of DM history Fstack: 1
Total number of electrons:     8.000000
Total ionic charge:     8.000000

* ProcessorY, Blocksize:    1  27


* Orbital distribution balance (max,min):    26    26


siesta: k-grid: Number of k-points = 1
siesta: k-point is Gamma-only

diag: Algorithm                                     = D&C
diag: Parallel over k                               =   F
diag: Use parallel 2D distribution                  =   F
diag: Parallel block-size                           = 27
diag: Parallel distribution                         =     1 x     1
diag: Used triangular part                          = Lower
diag: Absolute tolerance                            =  0.100E-15
diag: Orthogonalization factor                      =  0.100E-05
diag: Memory factor                                 =  1.0000


ts: **************************************************************
ts: Save H and S matrices                           =    F
ts: Save DM and EDM matrices                        =    F
ts: Only save the overlap matrix S                  =    F
ts: **************************************************************

************************ Begin: TS CHECKS AND WARNINGS ************************
************************ End: TS CHECKS AND WARNINGS **************************


                     ====================================
                        Begin CG opt. move =      0
                     ====================================

outcell: Unit cell vectors (Ang):
        2.130000    1.229756    0.000000
        2.130000   -1.229756    0.000000
        0.000000    0.000000   14.200000

outcell: Cell vector modules (Ang)   :    2.459512    2.459512   14.200000
outcell: Cell angles (23,13,12) (deg):     90.0000     90.0000     60.0000
outcell: Cell volume (Ang**3)        :     74.3904
Gamma-point calculation with interaction between periodic images
Some features might not work optimally:
e.g. DM initialization from atomic data
<dSpData1D:S at geom step 0
  <sparsity:sparsity for geom step 0
    nrows_g=26 nrows=26 sparsity=1.0000 nnzs=676, refcount: 7>
  <dData1D:(new from dSpData1D) n=676, refcount: 1>
refcount: 1>
new_DM -- step:     1
Initializing Density Matrix...

Attempting to read DM from file... Failed...
DM filled with atomic data:
<dSpData2D:DM initialized from atoms
  <sparsity:sparsity for geom step 0
    nrows_g=26 nrows=26 sparsity=1.0000 nnzs=676, refcount: 8>
  <dData2D:DM n=676 m=2, refcount: 1>
refcount: 1>
     spin moment: {S} , |S| = {        0.0        0.0    4.00000 }     4.00000
No. of atoms with KB's overlaping orbs in proc 0. Max # of overlaps:       2     151

InitMesh: MESH = 24 x 24 x 150 = 86400
InitMesh: Mesh cutoff (required, used) =   300.000   308.395 Ry
New grid distribution [1]: sub = 2

stepf: Fermi-Dirac step function

siesta: Program's energy decomposition (eV):
siesta: Ebs     =       -95.507939
siesta: Eions   =       564.310478
siesta: Ena     =       150.800224
siesta: Ekin    =       255.809925
siesta: Enl     =       -26.616923
siesta: Eso     =         0.000000
siesta: Edftu   =         0.000000
siesta: DEna    =       -19.091846
siesta: DUscf   =         2.376563
siesta: DUext   =         0.000000
siesta: Ex      =      -103.851413
siesta: Ec      =       -13.931131
siesta: Exc     =      -117.782544
siesta: EbV     =         0.000000
siesta: eta*DQ  =         0.000000
siesta: Emadel  =         0.000000
siesta: Emeta   =         0.000000
siesta: Emolmec =         0.000000
siesta: Ekinion =         0.000000
siesta: Eharris =      -311.112808
siesta: Etot    =      -318.815079
siesta: FreeEng =      -318.815079

        iscf     Eharris(eV)        E_KS(eV)     FreeEng(eV)     dDmax    Ef(eV) dHmax(eV)
   scf:    1     -311.112808     -318.815079     -318.815079  0.861301 -3.985117  3.393007
     spin moment: {S} , |S| = {        0.0        0.0    0.00000 }     0.00000
timer: Routine,Calls,Time,% = IterSCF        1       0.260  24.37
   scf:    2     -318.883235     -318.849574     -318.849574  0.034542 -3.396897  2.351654
     spin moment: {S} , |S| = {        0.0        0.0    0.00000 }     0.00000
   scf:    3     -318.918952     -318.886291     -318.886291  0.080506 -2.089619  0.642405
     spin moment: {S} , |S| = {        0.0        0.0    0.00000 }     0.00000
   scf:    4     -318.887559     -318.886922     -318.886922  0.003907 -2.081432  0.456235
     spin moment: {S} , |S| = {        0.0        0.0    0.00000 }     0.00000
   scf:    5     -318.888332     -318.887612     -318.887612  0.008987 -2.098006  0.046321
     spin moment: {S} , |S| = {        0.0        0.0    0.00000 }     0.00000
   scf:    6     -318.887626     -318.887619     -318.887619  0.000503 -2.098725  0.031213
     spin moment: {S} , |S| = {        0.0        0.0    0.00000 }     0.00000
   scf:    7     -318.887631     -318.887626     -318.887626  0.001061 -2.099159  0.006968
     spin moment: {S} , |S| = {        0.0        0.0    0.00000 }     0.00000
   scf:    8     -318.887626     -318.887626     -318.887626  0.000054 -2.098410  0.005210
     spin moment: {S} , |S| = {        0.0        0.0    0.00000 }     0.00000
   scf:    9     -318.887626     -318.887626     -318.887626  0.000148 -2.096434  0.000422
     spin moment: {S} , |S| = {        0.0        0.0    0.00000 }     0.00000
   scf:   10     -318.887626     -318.887626     -318.887626  0.000004 -2.096357  0.000282
     spin moment: {S} , |S| = {        0.0        0.0    0.00000 }     0.00000

SCF Convergence by DM+H criterion
max |DM_out - DM_in|         :     0.0000039794
max |H_out - H_in|      (eV) :     0.0002817141
SCF cycle converged after 10 iterations

Using DM_out to compute the final energy and forces
No. of atoms with KB's overlaping orbs in proc 0. Max # of overlaps:       2     151

Hirshfeld Atomic Populations:
Atom #     dQatom  Atom pop        Sz  Species
     1   -0.00000   4.00000   0.00000  C
     2    0.00001   3.99999  -0.00000  C
-------------------------------------
 Total                        0.00000

Voronoi Atomic Populations:
Atom #     dQatom  Atom pop        Sz  Species
     1   -0.03157   4.03157   0.00000  C
     2    0.03157   3.96843  -0.00000  C
-------------------------------------
 Total                        0.00000
 

siesta: E_KS(eV) =             -318.8876

siesta: E_KS - E_eggbox =      -318.8876
     spin moment: {S} , |S| = {        0.0        0.0    0.00000 }     0.00000

siesta: Atomic forces (eV/Ang):
----------------------------------------
   Tot   -0.016146   -0.000000   -0.000000
----------------------------------------
   Max    5.089627
   Res    2.933841    sqrt( Sum f_i^2 / 3N )
----------------------------------------
   Max    5.089627    constrained

Stress tensor Voigt[x,y,z,yz,xz,xy] (kbar):     -126.47      -56.97        0.04        0.00        0.00       -0.00
(Free)E + p*V (eV/cell)     -316.0492
Target enthalpy (eV/cell)     -318.8876

mulliken: Atomic and Orbital Populations:

mulliken: Spin UP 

Species: C                   
Atom  Qatom  Qorb
               2s      2s      2py     2pz     2px     2py     2pz     2px     
               3Pdxy   3Pdyz   3Pdz2   3Pdxz   3Pdx2-y2
   1  2.000   0.405   0.093   0.351   0.399   0.401   0.119   0.101   0.073
              0.030   0.000   0.003   0.000   0.025
   2  2.000   0.404   0.094   0.352   0.399   0.402   0.118   0.101   0.073
              0.030   0.000   0.003   0.000   0.025

mulliken: Qtot =        4.000

mulliken: Spin DOWN 

Species: C                   
Atom  Qatom  Qorb
               2s      2s      2py     2pz     2px     2py     2pz     2px     
               3Pdxy   3Pdyz   3Pdz2   3Pdxz   3Pdx2-y2
   1  2.000   0.405   0.093   0.351   0.399   0.401   0.119   0.101   0.073
              0.030   0.000   0.003   0.000   0.025
   2  2.000   0.404   0.094   0.352   0.399   0.402   0.118   0.101   0.073
              0.030   0.000   0.003   0.000   0.025

mulliken: Qtot =        4.000

                     ====================================
                        Begin CG opt. move =      1
                     ====================================

outcell: Unit cell vectors (Ang):
        2.130000    1.229756    0.000000
        2.130000   -1.229756    0.000000
        0.000000    0.000000   14.200000

outcell: Cell vector modules (Ang)   :    2.459512    2.459512   14.200000
outcell: Cell angles (23,13,12) (deg):     90.0000     90.0000     60.0000
outcell: Cell volume (Ang**3)        :     74.3904
Gamma-point calculation with interaction between periodic images
Some features might not work optimally:
e.g. DM initialization from atomic data
<dSpData1D:S at geom step 1
  <sparsity:sparsity for geom step 1
    nrows_g=26 nrows=26 sparsity=1.0000 nnzs=676, refcount: 7>
  <dData1D:(new from dSpData1D) n=676, refcount: 1>
refcount: 1>
new_DM -- step:     2
Re-using DM from previous geometries...
Number of DMs in history: 1
 DM extrapolation coefficients: 
1   1.00000
New DM after history re-use:
<dSpData2D:SpM extrapolated using coords
  <sparsity:sparsity for geom step 1
    nrows_g=26 nrows=26 sparsity=1.0000 nnzs=676, refcount: 9>
  <dData2D:(temp array for extrapolation) n=676 m=2, refcount: 1>
refcount: 1>
     spin moment: {S} , |S| = {        0.0        0.0    0.00000 }     0.00000
Note: For starting DM, Qtot, Tr[D*S] =          8.00000000          7.98364893
No. of atoms with KB's overlaping orbs in proc 0. Max # of overlaps:       2     151

InitMesh: MESH = 24 x 24 x 150 = 86400
InitMesh: Mesh cutoff (required, used) =   300.000   308.395 Ry
New grid distribution [1]: sub = 2

        iscf     Eharris(eV)        E_KS(eV)     FreeEng(eV)     dDmax    Ef(eV) dHmax(eV)
   scf:    1     -317.515643     -318.287565     -318.287565  0.156753 -2.019419  0.433206
     spin moment: {S} , |S| = {        0.0        0.0    0.00000 }     0.00000
   scf:    2     -318.308432     -318.300353     -318.300353  0.017446 -2.039778  0.120237
     spin moment: {S} , |S| = {        0.0        0.0    0.00000 }     0.00000
   scf:    3     -318.302156     -318.301363     -318.301363  0.003653 -2.032813  0.010570
     spin moment: {S} , |S| = {        0.0        0.0    0.00000 }     0.00000
   scf:    4     -318.301367     -318.301365     -318.301365  0.000050 -2.031787  0.007581
     spin moment: {S} , |S| = {        0.0        0.0   -0.00000 }    -0.00000
   scf:    5     -318.301369     -318.301367     -318.301367  0.000128 -2.029317  0.000680
     spin moment: {S} , |S| = {        0.0        0.0   -0.00000 }    -0.00000
   scf:    6     -318.301367     -318.301367     -318.301367  0.000006 -2.029339  0.000467
     spin moment: {S} , |S| = {        0.0        0.0   -0.00000 }    -0.00000

SCF Convergence by DM+H criterion
max |DM_out - DM_in|         :     0.0000055232
max |H_out - H_in|      (eV) :     0.0004673470
SCF cycle converged after 6 iterations

Using DM_out to compute the final energy and forces
No. of atoms with KB's overlaping orbs in proc 0. Max # of overlaps:       2     151

Hirshfeld Atomic Populations:
Atom #     dQatom  Atom pop        Sz  Species
     1    0.00001   3.99999   0.00000  C
     2   -0.00000   4.00000  -0.00000  C
-------------------------------------
 Total                        0.00000

Voronoi Atomic Populations:
Atom #     dQatom  Atom pop        Sz  Species
     1   -0.01383   4.01383   0.00000  C
     2    0.01383   3.98617  -0.00000  C
-------------------------------------
 Total                        0.00000
 

siesta: E_KS(eV) =             -318.3014
     spin moment: {S} , |S| = {        0.0        0.0   -0.00000 }    -0.00000

siesta: Atomic forces (eV/Ang):
----------------------------------------
   Tot    0.019703    0.000000    0.000000
----------------------------------------
   Max   12.128253
   Res    6.996565    sqrt( Sum f_i^2 / 3N )
----------------------------------------
   Max   12.128253    constrained

Stress tensor Voigt[x,y,z,yz,xz,xy] (kbar):      -13.36     -210.79        0.04        0.00        0.00        0.00
(Free)E + p*V (eV/cell)     -314.8328
Target enthalpy (eV/cell)     -318.3014

mulliken: Atomic and Orbital Populations:

mulliken: Spin UP 

Species: C                   
Atom  Qatom  Qorb
               2s      2s      2py     2pz     2px     2py     2pz     2px     
               3Pdxy   3Pdyz   3Pdz2   3Pdxz   3Pdx2-y2
   1  2.000   0.404   0.096   0.442   0.396   0.315   0.036   0.104   0.150
              0.022   0.000   0.002   0.000   0.033
   2  2.000   0.403   0.096   0.442   0.396   0.317   0.036   0.104   0.148
              0.022   0.000   0.002   0.000   0.033

mulliken: Qtot =        4.000

mulliken: Spin DOWN 

Species: C                   
Atom  Qatom  Qorb
               2s      2s      2py     2pz     2px     2py     2pz     2px     
               3Pdxy   3Pdyz   3Pdz2   3Pdxz   3Pdx2-y2
   1  2.000   0.404   0.096   0.442   0.396   0.315   0.036   0.104   0.150
              0.022   0.000   0.002   0.000   0.033
   2  2.000   0.403   0.096   0.442   0.396   0.317   0.036   0.104   0.148
              0.022   0.000   0.002   0.000   0.033

mulliken: Qtot =        4.000

                     ====================================
                        Begin CG opt. move =      2
                     ====================================

outcell: Unit cell vectors (Ang):
        2.130000    1.229756    0.000000
        2.130000   -1.229756    0.000000
        0.000000    0.000000   14.200000

outcell: Cell vector modules (Ang)   :    2.459512    2.459512   14.200000
outcell: Cell angles (23,13,12) (deg):     90.0000     90.0000     60.0000
outcell: Cell volume (Ang**3)        :     74.3904
Gamma-point calculation with interaction between periodic images
Some features might not work optimally:
e.g. DM initialization from atomic data
<dSpData1D:S at geom step 2
  <sparsity:sparsity for geom step 2
    nrows_g=26 nrows=26 sparsity=1.0000 nnzs=676, refcount: 7>
  <dData1D:(new from dSpData1D) n=676, refcount: 1>
refcount: 1>
new_DM -- step:     3
Re-using DM from previous geometries...
Number of DMs in history: 1
 DM extrapolation coefficients: 
1   1.00000
New DM after history re-use:
<dSpData2D:SpM extrapolated using coords
  <sparsity:sparsity for geom step 2
    nrows_g=26 nrows=26 sparsity=1.0000 nnzs=676, refcount: 9>
  <dData2D:(temp array for extrapolation) n=676 m=2, refcount: 1>
refcount: 1>
     spin moment: {S} , |S| = {        0.0        0.0    0.00000 }     0.00000
Note: For starting DM, Qtot, Tr[D*S] =          8.00000000          8.03190311
No. of atoms with KB's overlaping orbs in proc 0. Max # of overlaps:       2     151

InitMesh: MESH = 24 x 24 x 150 = 86400
InitMesh: Mesh cutoff (required, used) =   300.000   308.395 Ry
New grid distribution [1]: sub = 2

        iscf     Eharris(eV)        E_KS(eV)     FreeEng(eV)     dDmax    Ef(eV) dHmax(eV)
   scf:    1     -319.213290     -318.980158     -318.980158  0.116129 -2.047424  0.316004
     spin moment: {S} , |S| = {        0.0        0.0   -0.00000 }    -0.00000
   scf:    2     -318.990293     -318.986417     -318.986417  0.009737 -2.133862  0.089412
     spin moment: {S} , |S| = {        0.0        0.0   -0.00000 }    -0.00000
   scf:    3     -318.987323     -318.986928     -318.986928  0.002129 -2.111406  0.011323
     spin moment: {S} , |S| = {        0.0        0.0    0.00000 }     0.00000
   scf:    4     -318.986930     -318.986929     -318.986929  0.000052 -2.109833  0.007947
     spin moment: {S} , |S| = {        0.0        0.0    0.00000 }     0.00000
   scf:    5     -318.986931     -318.986930     -318.986930  0.000108 -2.106610  0.001371
     spin moment: {S} , |S| = {        0.0        0.0    0.00000 }     0.00000
   scf:    6     -318.986930     -318.986930     -318.986930  0.000013 -2.106600  0.000968
     spin moment: {S} , |S| = {        0.0        0.0   -0.00000 }    -0.00000

SCF Convergence by DM+H criterion
max |DM_out - DM_in|         :     0.0000130786
max |H_out - H_in|      (eV) :     0.0009680179
SCF cycle converged after 6 iterations

Using DM_out to compute the final energy and forces
No. of atoms with KB's overlaping orbs in proc 0. Max # of overlaps:       2     151

Hirshfeld Atomic Populations:
Atom #     dQatom  Atom pop        Sz  Species
     1    0.00000   4.00000   0.00000  C
     2    0.00000   4.00000  -0.00000  C
-------------------------------------
 Total                       -0.00000

Voronoi Atomic Populations:
Atom #     dQatom  Atom pop        Sz  Species
     1   -0.00428   4.00428   0.00000  C
     2    0.00429   3.99571  -0.00000  C
-------------------------------------
 Total                       -0.00000
 

siesta: E_KS(eV) =             -318.9869
     spin moment: {S} , |S| = {        0.0        0.0   -0.00000 }    -0.00000

siesta: Atomic forces (eV/Ang):
----------------------------------------
   Tot    0.010503    0.000000   -0.000000
----------------------------------------
   Max    0.519554
   Res    0.296948    sqrt( Sum f_i^2 / 3N )
----------------------------------------
   Max    0.519554    constrained

Stress tensor Voigt[x,y,z,yz,xz,xy] (kbar):      -86.02      -92.59        0.03        0.00        0.00       -0.00
(Free)E + p*V (eV/cell)     -316.2231
Target enthalpy (eV/cell)     -318.9869

mulliken: Atomic and Orbital Populations:

mulliken: Spin UP 

Species: C                   
Atom  Qatom  Qorb
               2s      2s      2py     2pz     2px     2py     2pz     2px     
               3Pdxy   3Pdyz   3Pdz2   3Pdxz   3Pdx2-y2
   1  2.000   0.404   0.093   0.378   0.399   0.374   0.095   0.101   0.099
              0.027  -0.000   0.003   0.000   0.028
   2  2.000   0.404   0.093   0.379   0.399   0.373   0.094   0.101   0.099
              0.027   0.000   0.003   0.000   0.028

mulliken: Qtot =        4.000

mulliken: Spin DOWN 

Species: C                   
Atom  Qatom  Qorb
               2s      2s      2py     2pz     2px     2py     2pz     2px     
               3Pdxy   3Pdyz   3Pdz2   3Pdxz   3Pdx2-y2
   1  2.000   0.404   0.093   0.378   0.399   0.374   0.095   0.101   0.099
              0.027  -0.000   0.003   0.000   0.028
   2  2.000   0.404   0.093   0.379   0.399   0.373   0.094   0.101   0.099
              0.027   0.000   0.003   0.000   0.028

mulliken: Qtot =        4.000

cgvc: Finished line minimization    1.  Mean atomic displacement =    0.0418

outcoor: Final (unrelaxed) atomic coordinates (Ang):        
   -0.02214495   -0.00000000   -0.00000000   1       1  C
    1.40207469   -0.00000000   -0.00000000   1       2  C

siesta: Program's energy decomposition (eV):
siesta: Ebs     =       -99.367835
siesta: Eions   =       564.310478
siesta: Ena     =       150.787390
siesta: Ekin    =       253.050395
siesta: Enl     =       -26.231344
siesta: Eso     =         0.000000
siesta: Edftu   =         0.000000
siesta: DEna    =       -17.210484
siesta: DUscf   =         2.158960
siesta: DUext   =         0.000000
siesta: Ex      =      -103.327807
siesta: Ec      =       -13.903562
siesta: Exc     =      -117.231369
siesta: EbV     =         0.000000
siesta: eta*DQ  =         0.000000
siesta: Emadel  =         0.000000
siesta: Emeta   =         0.000000
siesta: Emolmec =         0.000000
siesta: Ekinion =         0.000000
siesta: Eharris =      -318.986930
siesta: Etot    =      -318.986930
siesta: FreeEng =      -318.986930

siesta: Final energy (eV):
siesta:  Band Struct. =     -99.367835
siesta:       Kinetic =     253.050395
siesta:       Hartree =    1023.813533
siesta:         Edftu =       0.000000
siesta:       Eso     =       0.000000
siesta:    Ext. field =       0.000000
siesta:         Exch. =    -103.327807
siesta:         Corr. =     -13.903562
siesta:     Bulk bias =       0.000000
siesta:   Exch.-corr. =    -117.231369
siesta:  Ion-electron =   -2270.512856
siesta:       Ion-ion =     791.893367
siesta:       Ekinion =       0.000000
siesta: D3 dispersion =       0.000000
siesta:         Total =    -318.986930
siesta:         Fermi =      -2.106600

siesta: Atomic forces (eV/Ang):
siesta:      1    0.519554   -0.000000    0.000000
siesta:      2   -0.509050    0.000000   -0.000000
siesta: ----------------------------------------
siesta:    Tot    0.010503    0.000000   -0.000000

siesta: Stress tensor (static) (eV/Ang**3):
siesta:    -0.053689    0.000000    0.000000
siesta:    -0.000000   -0.057788    0.000000
siesta:     0.000000    0.000000    0.000020

siesta: Cell volume =         74.390404 Ang**3

siesta: Pressure (static):
siesta:                Solid            Molecule  Units
siesta:           0.00040464          0.00044039  Ry/Bohr**3
siesta:           0.03715243          0.04043457  eV/Ang**3
siesta:          59.52476097         64.78332581  kBar
(Free)E+ p_basis*V_orbitals  =        -318.205234
(Free)Eharris+ p_basis*V_orbitals  =        -318.205234
     spin moment: {S} , |S| = {        0.0        0.0   -0.00000 }    -0.00000

siesta: Electric dipole (a.u.)  =    0.000000    0.000000   -0.000000
siesta: Electric dipole (Debye) =    0.000000    0.000000   -0.000000

cite: Please see "siesta.bib" for an exhaustive BiBTeX file.
cite: Please clearly indicate Siesta version in published work: NO_VERSION_LABEL_AVAILABLE
cite: This calculation has made use of the following articles
cite: which are encouraged to be cited in a published work.
        Primary SIESTA paper
          DOI: www.doi.org/10.1088/0953-8984/14/11/302


timer: Elapsed wall time (sec) =      13.780
timer: CPU execution times (sec):

Routine            Calls   Time/call    Tot.time        %
siesta                 1      13.758      13.758   100.00
Setup                  1       0.095       0.095     0.69
bands                  1       0.000       0.000     0.00
KSV_init               1       0.000       0.000     0.00
IterGeom               3       4.554      13.662    99.30
geom_init              3       0.558       1.673    12.16
state_init             3       0.033       0.100     0.73
hsparse                3       0.001       0.002     0.02
overlap                3       0.032       0.095     0.69
Setup_H0               3       0.265       0.796     5.78
naefs                  6       0.000       0.000     0.00
MolMec                 6       0.000       0.000     0.00
kinefsm                6       0.018       0.105     0.77
nlefsm                 6       0.019       0.111     0.81
DHSCF_Init             3       0.205       0.614     4.46
DHSCF1                 3       0.022       0.067     0.49
INITMESH               3       0.000       0.000     0.00
DHSCF2                 3       0.182       0.546     3.97
REMESH                 3       0.009       0.026     0.19
REORD                175       0.000       0.016     0.12
PHION                  3       0.148       0.443     3.22
COMM_BSC             245       0.000       0.016     0.12
POISON                31       0.009       0.285     2.07
fft                   62       0.004       0.256     1.86
setup_H               25       0.265       6.633    48.21
DHSCF                 28       0.454      12.702    92.32
DHSCF3                28       0.286       8.001    58.16
rhoofd                28       0.129       3.608    26.23
XC                    28       0.008       0.217     1.58
GXC-CellXC            28       0.007       0.200     1.46
gridxc@cellXC         28       0.007       0.200     1.46
vmat                  28       0.117       3.287    23.89
IterSCF               22       0.267       5.871    42.67
compute_dm            22       0.001       0.011     0.08
diagon                22       0.000       0.008     0.06
r-eigvec              44       0.000       0.007     0.05
r-buildHS             44       0.000       0.000     0.00
rdiag                 44       0.000       0.007     0.05
rdiag1                44       0.000       0.000     0.00
rdiag2                44       0.000       0.001     0.01
rdiag3                44       0.000       0.005     0.03
rdiag4                44       0.000       0.000     0.00
r-buildD              22       0.000       0.001     0.01
MIXER                 19       0.000       0.000     0.00
PostSCF                3       2.039       6.116    44.46
partial-charges        3       0.184       0.552     4.01
DHSCF4                 3       1.567       4.700    34.16
dfscf                  3       1.548       4.644    33.75
overfsm                3       0.004       0.011     0.08
writeHSX               3       0.000       0.000     0.00
state_analysis         3       0.000       0.001     0.01
siesta_move            3       0.000       0.000     0.00
Analysis               1       0.001       0.001     0.00
optical                1       0.000       0.000     0.00
  

>> End of run:  23-APR-2024  17:44:34
Job completed
