   2   2   0   0
  0.1200000E+02  0.2000000E-09  0.3000000E-09  0.4000000E-09  0.5000000E-15
  1.000000000000000E-004
  CAR 
 unknown system                          
     22.90376574    -27.39684550  301      1.38902037      1.00000000
    -27.397  0.0000E+00  0.0000E+00
    -27.229  0.0000E+00  0.0000E+00
    -27.062  0.0000E+00  0.0000E+00
    -26.894  0.0000E+00  0.0000E+00
    -26.726  0.0000E+00  0.0000E+00
    -26.559  0.0000E+00  0.0000E+00
    -26.391  0.0000E+00  0.0000E+00
    -26.223  0.0000E+00  0.0000E+00
    -26.055 -0.2543E-40 -0.4265E-41
    -25.888 -0.7318E-28 -0.1227E-28
    -25.720 -0.7259E-18 -0.1217E-18
    -25.552 -0.2286E-10 -0.3833E-11
    -25.385 -0.2160E-05 -0.3622E-06
    -25.217 -0.1817E-03 -0.3083E-04
    -25.049  0.5694E-02  0.9238E-03
    -24.882  0.4683E-03  0.1002E-02
    -24.714 -0.1649E-03  0.9747E-03
    -24.546  0.5822E-02  0.1951E-02
    -24.379  0.3062E-03  0.2002E-02
    -24.211 -0.1305E-04  0.2000E-02
    -24.043 -0.5709E-09  0.2000E-02
    -23.876 -0.6820E-16  0.2000E-02
    -23.708  0.0000E+00  0.2000E-02
    -23.540  0.0000E+00  0.2000E-02
    -23.373  0.0000E+00  0.2000E-02
    -23.205  0.0000E+00  0.2000E-02
    -23.037  0.0000E+00  0.2000E-02
    -22.870  0.0000E+00  0.2000E-02
    -22.702  0.0000E+00  0.2000E-02
    -22.534  0.0000E+00  0.2000E-02
    -22.367  0.0000E+00  0.2000E-02
    -22.199  0.0000E+00  0.2000E-02
    -22.031  0.0000E+00  0.2000E-02
    -21.864  0.0000E+00  0.2000E-02
    -21.696  0.0000E+00  0.2000E-02
    -21.528  0.0000E+00  0.2000E-02
    -21.361  0.0000E+00  0.2000E-02
    -21.193  0.0000E+00  0.2000E-02
    -21.025  0.0000E+00  0.2000E-02
    -20.858  0.0000E+00  0.2000E-02
    -20.690  0.0000E+00  0.2000E-02
    -20.522  0.0000E+00  0.2000E-02
    -20.355  0.0000E+00  0.2000E-02
    -20.187  0.0000E+00  0.2000E-02
    -20.019  0.0000E+00  0.2000E-02
    -19.852  0.0000E+00  0.2000E-02
    -19.684  0.0000E+00  0.2000E-02
    -19.516  0.0000E+00  0.2000E-02
    -19.349  0.0000E+00  0.2000E-02
    -19.181  0.0000E+00  0.2000E-02
    -19.013  0.0000E+00  0.2000E-02
    -18.846  0.0000E+00  0.2000E-02
    -18.678  0.0000E+00  0.2000E-02
    -18.510  0.0000E+00  0.2000E-02
    -18.343  0.0000E+00  0.2000E-02
    -18.175  0.0000E+00  0.2000E-02
    -18.007  0.0000E+00  0.2000E-02
    -17.840  0.0000E+00  0.2000E-02
    -17.672  0.0000E+00  0.2000E-02
    -17.504  0.0000E+00  0.2000E-02
    -17.337  0.0000E+00  0.2000E-02
    -17.169  0.0000E+00  0.2000E-02
    -17.001  0.0000E+00  0.2000E-02
    -16.834  0.0000E+00  0.2000E-02
    -16.666  0.0000E+00  0.2000E-02
    -16.498  0.0000E+00  0.2000E-02
    -16.331  0.0000E+00  0.2000E-02
    -16.163  0.0000E+00  0.2000E-02
    -15.995  0.0000E+00  0.2000E-02
    -15.828  0.0000E+00  0.2000E-02
    -15.660  0.0000E+00  0.2000E-02
    -15.492  0.0000E+00  0.2000E-02
    -15.325  0.0000E+00  0.2000E-02
    -15.157  0.0000E+00  0.2000E-02
    -14.989  0.0000E+00  0.2000E-02
    -14.822  0.0000E+00  0.2000E-02
    -14.654  0.0000E+00  0.2000E-02
    -14.486  0.0000E+00  0.2000E-02
    -14.319  0.0000E+00  0.2000E-02
    -14.151  0.0000E+00  0.2000E-02
    -13.983  0.0000E+00  0.2000E-02
    -13.816  0.0000E+00  0.2000E-02
    -13.648  0.0000E+00  0.2000E-02
    -13.480  0.0000E+00  0.2000E-02
    -13.313  0.0000E+00  0.2000E-02
    -13.145  0.0000E+00  0.2000E-02
    -12.977  0.0000E+00  0.2000E-02
    -12.810  0.0000E+00  0.2000E-02
    -12.642  0.0000E+00  0.2000E-02
    -12.474  0.0000E+00  0.2000E-02
    -12.307  0.0000E+00  0.2000E-02
    -12.139  0.0000E+00  0.2000E-02
    -11.971 -0.1559E-33  0.2000E-02
    -11.804 -0.2355E-22  0.2000E-02
    -11.636 -0.1167E-13  0.2000E-02
    -11.468 -0.1863E-07  0.2000E-02
    -11.301 -0.7035E-04  0.1988E-02
    -11.133  0.2084E-02  0.2338E-02
    -10.965  0.4121E-02  0.3029E-02
    -10.798 -0.1698E-03  0.3000E-02
    -10.630 -0.2752E-06  0.3000E-02
    -10.462 -0.1048E-03  0.2982E-02
    -10.295  0.2856E-02  0.3461E-02
    -10.127  0.3342E-02  0.4022E-02
     -9.959 -0.1290E-03  0.4000E-02
     -9.792 -0.9005E-07  0.4000E-02
     -9.624 -0.1310E-12  0.4000E-02
     -9.456  0.0000E+00  0.4000E-02
     -9.289  0.0000E+00  0.4000E-02
     -9.121  0.0000E+00  0.4000E-02
     -8.953  0.0000E+00  0.4000E-02
     -8.786  0.0000E+00  0.4000E-02
     -8.618 -0.4505E-41  0.4000E-02
     -8.450 -0.1752E-28  0.4000E-02
     -8.283 -0.2360E-18  0.4000E-02
     -8.115 -0.1017E-10  0.4000E-02
     -7.947 -0.1335E-05  0.4000E-02
     -7.780 -0.2059E-03  0.3965E-02
     -7.612  0.5441E-02  0.4878E-02
     -7.444  0.5803E-03  0.4975E-02
     -7.277  0.4189E-02  0.5677E-02
     -7.109  0.1992E-02  0.6011E-02
     -6.941 -0.6704E-04  0.6000E-02
     -6.774 -0.1904E-03  0.5968E-02
     -6.606  0.4538E-02  0.6729E-02
     -6.438  0.1672E-02  0.7009E-02
     -6.271 -0.5427E-04  0.7000E-02
     -6.103 -0.1029E-07  0.7000E-02
     -5.935 -0.4777E-14  0.7000E-02
     -5.768 -0.2443E-11  0.7000E-02
     -5.600 -0.5654E-06  0.7000E-02
     -5.432 -0.2035E-03  0.6966E-02
     -5.265  0.4863E-02  0.7781E-02
     -5.097  0.1348E-02  0.8007E-02
     -4.929 -0.9167E-04  0.7992E-02
     -4.762  0.1520E-02  0.8247E-02
     -4.594  0.4690E-02  0.9033E-02
     -4.426 -0.2975E-03  0.8983E-02
     -4.259  0.2767E-02  0.9447E-02
     -4.091  0.3431E-02  0.1002E-01
     -3.923 -0.1336E-03  0.1000E-01
     -3.756 -0.1010E-06  0.1000E-01
     -3.588 -0.1581E-12  0.1000E-01
     -3.420  0.0000E+00  0.1000E-01
     -3.253  0.0000E+00  0.1000E-01
     -3.085  0.0000E+00  0.1000E-01
     -2.917  0.0000E+00  0.1000E-01
     -2.750  0.0000E+00  0.1000E-01
     -2.582  0.0000E+00  0.1000E-01
     -2.414  0.0000E+00  0.1000E-01
     -2.247  0.0000E+00  0.1000E-01
     -2.079  0.0000E+00  0.1000E-01
     -1.911  0.0000E+00  0.1000E-01
     -1.744  0.0000E+00  0.1000E-01
     -1.576  0.0000E+00  0.1000E-01
     -1.408  0.0000E+00  0.1000E-01
     -1.241  0.0000E+00  0.1000E-01
     -1.073  0.0000E+00  0.1000E-01
     -0.905  0.0000E+00  0.1000E-01
     -0.738  0.0000E+00  0.1000E-01
     -0.570  0.0000E+00  0.1000E-01
     -0.402  0.0000E+00  0.1000E-01
     -0.235  0.0000E+00  0.1000E-01
     -0.067  0.0000E+00  0.1000E-01
      0.101  0.0000E+00  0.1000E-01
      0.268  0.0000E+00  0.1000E-01
      0.436 -0.2475E-34  0.1000E-01
      0.604 -0.5374E-23  0.1000E-01
      0.771 -0.3841E-14  0.1000E-01
      0.939 -0.8902E-08  0.1000E-01
      1.107 -0.5083E-04  0.9991E-02
      1.275  0.1577E-02  0.1026E-01
      1.442  0.4633E-02  0.1103E-01
      1.610 -0.1946E-03  0.1100E-01
      1.778 -0.4198E-06  0.1100E-01
      1.945 -0.5521E-09  0.1100E-01
      2.113 -0.1281E-04  0.1100E-01
      2.281  0.2956E-03  0.1105E-01
      2.448  0.5829E-02  0.1202E-01
      2.616 -0.1488E-03  0.1200E-01
      2.784 -0.1110E-03  0.1198E-01
      2.951  0.5895E-02  0.1297E-01
      3.119  0.8958E-04  0.1298E-01
      3.287  0.2773E-02  0.1345E-01
      3.454  0.3415E-02  0.1402E-01
      3.622 -0.1328E-03  0.1400E-01
      3.790 -0.9816E-07  0.1400E-01
      3.957 -0.1498E-12  0.1400E-01
      4.125  0.0000E+00  0.1400E-01
      4.293  0.0000E+00  0.1400E-01
      4.460  0.0000E+00  0.1400E-01
      4.628  0.0000E+00  0.1400E-01
      4.796  0.0000E+00  0.1400E-01
      4.963  0.0000E+00  0.1400E-01
      5.131  0.0000E+00  0.1400E-01
      5.299  0.0000E+00  0.1400E-01
      5.466  0.0000E+00  0.1400E-01
      5.634  0.0000E+00  0.1400E-01
      5.802  0.0000E+00  0.1400E-01
      5.969  0.0000E+00  0.1400E-01
      6.137  0.0000E+00  0.1400E-01
      6.305  0.0000E+00  0.1400E-01
      6.472  0.0000E+00  0.1400E-01
      6.640  0.0000E+00  0.1400E-01
      6.808  0.0000E+00  0.1400E-01
      6.975  0.0000E+00  0.1400E-01
      7.143  0.0000E+00  0.1400E-01
      7.311  0.0000E+00  0.1400E-01
      7.478  0.0000E+00  0.1400E-01
      7.646  0.0000E+00  0.1400E-01
      7.814  0.0000E+00  0.1400E-01
      7.981  0.0000E+00  0.1400E-01
      8.149  0.0000E+00  0.1400E-01
      8.317  0.0000E+00  0.1400E-01
      8.484  0.0000E+00  0.1400E-01
      8.652  0.0000E+00  0.1400E-01
      8.820  0.0000E+00  0.1400E-01
      8.987  0.0000E+00  0.1400E-01
      9.155  0.0000E+00  0.1400E-01
      9.323  0.0000E+00  0.1400E-01
      9.490  0.0000E+00  0.1400E-01
      9.658  0.0000E+00  0.1400E-01
      9.826  0.0000E+00  0.1400E-01
      9.993 -0.1911E-31  0.1400E-01
     10.161 -0.1094E-20  0.1400E-01
     10.329 -0.2032E-12  0.1400E-01
     10.496 -0.1193E-06  0.1400E-01
     10.664 -0.1414E-03  0.1398E-01
     10.832  0.3581E-02  0.1458E-01
     10.999  0.2618E-02  0.1502E-01
     11.167 -0.1776E-03  0.1499E-01
     11.335  0.2405E-02  0.1539E-01
     11.502  0.3797E-02  0.1603E-01
     11.670 -0.1528E-03  0.1600E-01
     11.838 -0.1535E-06  0.1600E-01
     12.005 -0.3021E-12  0.1600E-01
     12.173  0.0000E+00  0.1600E-01
     12.341  0.0000E+00  0.1600E-01
     12.508  0.0000E+00  0.1600E-01
     12.676  0.0000E+00  0.1600E-01
     12.844  0.0000E+00  0.1600E-01
     13.011  0.0000E+00  0.1600E-01
     13.179  0.0000E+00  0.1600E-01
     13.347 -0.1065E-31  0.1600E-01
     13.514 -0.6831E-21  0.1600E-01
     13.682 -0.1429E-12  0.1600E-01
     13.850 -0.9494E-07  0.1600E-01
     14.017 -0.1311E-03  0.1598E-01
     14.185  0.3383E-02  0.1655E-01
     14.353  0.2765E-02  0.1701E-01
     14.520  0.1466E-02  0.1725E-01
     14.688  0.4642E-02  0.1803E-01
     14.856 -0.1949E-03  0.1800E-01
     15.023 -0.4267E-06  0.1800E-01
     15.191 -0.1553E-11  0.1800E-01
     15.359 -0.1823E-15  0.1800E-01
     15.526 -0.1121E-08  0.1800E-01
     15.694 -0.1851E-04  0.1800E-01
     15.862  0.5277E-03  0.1809E-01
     16.029  0.5645E-02  0.1903E-01
     16.197 -0.2679E-03  0.1899E-01
     16.365  0.2295E-02  0.1937E-01
     16.532  0.3905E-02  0.2003E-01
     16.700 -0.1585E-03  0.2000E-01
     16.868 -0.1754E-06  0.2000E-01
     17.035 -0.3751E-12  0.2000E-01
     17.203  0.0000E+00  0.2000E-01
     17.371  0.0000E+00  0.2000E-01
     17.538  0.0000E+00  0.2000E-01
     17.706  0.0000E+00  0.2000E-01
     17.874  0.0000E+00  0.2000E-01
     18.041  0.0000E+00  0.2000E-01
     18.209 -0.2343E-34  0.2000E-01
     18.377 -0.5136E-23  0.2000E-01
     18.544 -0.3708E-14  0.2000E-01
     18.712 -0.8688E-08  0.2000E-01
     18.880 -0.5026E-04  0.1999E-01
     19.047  0.1561E-02  0.2025E-01
     19.215  0.4450E-02  0.2100E-01
     19.383  0.4548E-02  0.2176E-01
     19.550  0.1466E-02  0.2201E-01
     19.718 -0.2548E-03  0.2196E-01
     19.886  0.5399E-02  0.2287E-01
     20.053  0.7996E-03  0.2300E-01
     20.221 -0.2583E-04  0.2300E-01
     20.389 -0.1730E-04  0.2300E-01
     20.556  0.4804E-03  0.2308E-01
     20.724  0.5686E-02  0.2403E-01
     20.892 -0.1830E-03  0.2400E-01
     21.059 -0.2124E-05  0.2400E-01
     21.227 -0.2222E-10  0.2400E-01
     21.395 -0.9932E-18  0.2400E-01
     21.562  0.0000E+00  0.2400E-01
     21.730  0.0000E+00  0.2400E-01
     21.898  0.0000E+00  0.2400E-01
     22.065  0.0000E+00  0.2400E-01
     22.233  0.0000E+00  0.2400E-01
     22.401  0.0000E+00  0.2400E-01
     22.568  0.0000E+00  0.2400E-01
     22.736  0.0000E+00  0.2400E-01
     22.904  0.0000E+00  0.2400E-01
