 vasp.5.4.4.18Apr17-6-g9f103f2a35 (build Feb 29 2024 09:05:03) complex          
  
 executed on             LinuxIFC date 2024.03.19  12:29:54
 running on   12 total cores
 distrk:  each k-point on   12 cores,    1 groups
 distr:  one band on NCORES_PER_BAND=   1 cores,   12 groups


--------------------------------------------------------------------------------------------------------


 INCAR:
 POTCAR:   PAW_PBE N 08Apr2002                    
 POTCAR:   PAW_PBE O 08Apr2002                    

 ----------------------------------------------------------------------------- 
|                                                                             |
|           W    W    AA    RRRRR   N    N  II  N    N   GGGG   !!!           |
|           W    W   A  A   R    R  NN   N  II  NN   N  G    G  !!!           |
|           W    W  A    A  R    R  N N  N  II  N N  N  G       !!!           |
|           W WW W  AAAAAA  RRRRR   N  N N  II  N  N N  G  GGG   !            |
|           WW  WW  A    A  R   R   N   NN  II  N   NN  G    G                |
|           W    W  A    A  R    R  N    N  II  N    N   GGGG   !!!           |
|                                                                             |
|      For optimal performance we recommend to set                            |
|        NCORE= 4 - approx SQRT( number of cores)                             |
|      NCORE specifies how many cores store one orbital (NPAR=cpu/NCORE).     |
|      This setting can  greatly improve the performance of VASP for DFT.     |
|      The default,   NCORE=1            might be grossly inefficient         |
|      on modern multi-core architectures or massively parallel machines.     |
|      Do your own testing !!!!                                               |
|      Unfortunately you need to use the default for GW and RPA calculations. |
|      (for HF NCORE is supported but not extensively tested yet)             |
|                                                                             |
 ----------------------------------------------------------------------------- 

 POTCAR:   PAW_PBE N 08Apr2002                    
   VRHFIN =N: s2p3                                                              
   LEXCH  = PE                                                                  
   EATOM  =   264.5486 eV,   19.4438 Ry                                         
                                                                                
   TITEL  = PAW_PBE N 08Apr2002                                                 
   LULTRA =        F    use ultrasoft PP ?                                      
   IUNSCR =        0    unscreen: 0-lin 1-nonlin 2-no                           
   RPACOR =     .000    partial core radius                                     
   POMASS =   14.001; ZVAL   =    5.000    mass and valenz                      
   RCORE  =    1.500    outmost cutoff radius                                   
   RWIGS  =    1.400; RWIGS  =     .741    wigner-seitz radius (au A)           
   ENMAX  =  400.000; ENMIN  =  300.000 eV                                      
   ICORE  =        2    local potential                                         
   LCOR   =        T    correct aug charges                                     
   LPAW   =        T    paw PP                                                  
   EAUG   =  627.112                                                            
   DEXC   =     .000                                                            
   RMAX   =    2.247    core radius for proj-oper                               
   RAUG   =    1.300    factor for augmentation sphere                          
   RDEP   =    1.514    radius for radial grids                                 
   QCUT   =   -5.562; QGAM   =   11.124    optimization parameters              
                                                                                
   Description                                                                  
     l     E      TYP  RCUT    TYP  RCUT                                        
     0   .000     23  1.200                                                     
     0   .000     23  1.200                                                     
     1   .000     23  1.500                                                     
     1   .700     23  1.500                                                     
     2   .000      7  1.500                                                     
  local pseudopotential read in
  atomic valenz-charges read in
  non local Contribution for L=           0  read in
    real space projection operators read in
  non local Contribution for L=           0  read in
    real space projection operators read in
  non local Contribution for L=           1  read in
    real space projection operators read in
  non local Contribution for L=           1  read in
    real space projection operators read in
    PAW grid and wavefunctions read in
 
   number of l-projection  operators is LMAX  =           4
   number of lm-projection operators is LMMAX =           8
 
 POTCAR:   PAW_PBE O 08Apr2002                    
   VRHFIN =O: s2p4                                                              
   LEXCH  = PE                                                                  
   EATOM  =   432.3788 eV,   31.7789 Ry                                         
                                                                                
   TITEL  = PAW_PBE O 08Apr2002                                                 
   LULTRA =        F    use ultrasoft PP ?                                      
   IUNSCR =        0    unscreen: 0-lin 1-nonlin 2-no                           
   RPACOR =     .000    partial core radius                                     
   POMASS =   16.000; ZVAL   =    6.000    mass and valenz                      
   RCORE  =    1.520    outmost cutoff radius                                   
   RWIGS  =    1.550; RWIGS  =     .820    wigner-seitz radius (au A)           
   ENMAX  =  400.000; ENMIN  =  300.000 eV                                      
   ICORE  =        2    local potential                                         
   LCOR   =        T    correct aug charges                                     
   LPAW   =        T    paw PP                                                  
   EAUG   =  605.392                                                            
   DEXC   =     .000                                                            
   RMAX   =    2.264    core radius for proj-oper                               
   RAUG   =    1.300    factor for augmentation sphere                          
   RDEP   =    1.550    radius for radial grids                                 
   QCUT   =   -5.520; QGAM   =   11.041    optimization parameters              
                                                                                
   Description                                                                  
     l     E      TYP  RCUT    TYP  RCUT                                        
     0   .000     23  1.200                                                     
     0  -.700     23  1.200                                                     
     1   .000     23  1.520                                                     
     1   .600     23  1.520                                                     
     2   .000      7  1.500                                                     
  local pseudopotential read in
  atomic valenz-charges read in
  non local Contribution for L=           0  read in
    real space projection operators read in
  non local Contribution for L=           0  read in
    real space projection operators read in
  non local Contribution for L=           1  read in
    real space projection operators read in
  non local Contribution for L=           1  read in
    real space projection operators read in
    PAW grid and wavefunctions read in
 
   number of l-projection  operators is LMAX  =           4
   number of lm-projection operators is LMMAX =           8
 

 ----------------------------------------------------------------------------- 
|                                                                             |
|  ADVICE TO THIS USER RUNNING 'VASP/VAMP'   (HEAR YOUR MASTER'S VOICE ...):  |
|                                                                             |
|      You have a (more or less) 'small supercell' and for smaller cells      |
|      it is recommended  to use the reciprocal-space projection scheme!      |
|      The real space optimization is not  efficient for small cells and it   |
|      is also less accurate ...                                              |
|      Therefore set LREAL=.FALSE. in the  INCAR file                         |
|                                                                             |
 ----------------------------------------------------------------------------- 

 Optimization of the real space projectors (new method)

 maximal supplied QI-value         = 25.13
 optimisation between [QCUT,QGAM] = [ 12.32, 24.88] = [ 42.47,173.37] Ry 
 Optimized for a Real-space Cutoff    1.35 Angstroem

   l    n(q)    QCUT    max X(q) W(low)/X(q) W(high)/X(q)  e(spline) 
   0     10    12.315     4.511    0.23E-04    0.46E-05    0.84E-07
   0     10    12.315    37.799    0.59E-04    0.23E-05    0.59E-06
   1     10    12.315     2.478    0.27E-05    0.43E-06    0.89E-07
   1     10    12.315    13.693    0.13E-03    0.24E-03    0.75E-06
 Optimization of the real space projectors (new method)

 maximal supplied QI-value         = 24.76
 optimisation between [QCUT,QGAM] = [ 12.38, 25.00] = [ 42.90,175.06] Ry 
 Optimized for a Real-space Cutoff    1.16 Angstroem

   l    n(q)    QCUT    max X(q) W(low)/X(q) W(high)/X(q)  e(spline) 
   0      9    12.378     4.192    0.16E-04    0.96E-05    0.57E-07
   0      9    12.378     8.473    0.17E-03    0.81E-05    0.33E-06
   1      8    12.378     2.474    0.24E-04    0.82E-05    0.33E-07
   1      8    12.378     3.912    0.18E-03    0.14E-03    0.26E-06
 PAW_PBE N 08Apr2002                    :
 energy of atom  1       EATOM= -264.5486
 kinetic energy error for atom=    0.0103 (will be added to EATOM!!)
 PAW_PBE O 08Apr2002                    :
 energy of atom  2       EATOM= -432.3788
 kinetic energy error for atom=    0.0168 (will be added to EATOM!!)
 
 
 POSCAR: sisl output                             
  positions in direct lattice
  velocities in cartesian coordinates
 exchange correlation table for  LEXCH =        8
   RHO(1)=    0.500       N(1)  =     2000
   RHO(2)=  100.500       N(2)  =     4000
 


--------------------------------------------------------------------------------------------------------


 ion  position               nearest neighbor table
   1  0.500  0.500  0.560-   2 1.19
   2  0.500  0.500  0.263-   1 1.19
 
  LATTYP: Found a simple orthorhombic cell.
 ALAT       =     2.0000000000
 B/A-ratio  =     1.5000000000
 C/A-ratio  =     2.0000000000
  
  Lattice vectors:
  
 A1 = (   2.0000000000,   0.0000000000,   0.0000000000)
 A2 = (   0.0000000000,   3.0000000000,   0.0000000000)
 A3 = (   0.0000000000,   0.0000000000,   4.0000000000)


Analysis of symmetry for initial positions (statically):
=====================================================================
 Subroutine PRICEL returns:
 Original cell was already a primitive cell.
 

 Routine SETGRP: Setting up the symmetry group for a 
 simple orthorhombic supercell.


 Subroutine GETGRP returns: Found  4 space group operations
 (whereof  4 operations were pure point group operations)
 out of a pool of  8 trial point group operations.


The static configuration has the point symmetry C_2v.


Analysis of symmetry for dynamics (positions and initial velocities):
=====================================================================
 Subroutine PRICEL returns:
 Original cell was already a primitive cell.
 

 Routine SETGRP: Setting up the symmetry group for a 
 simple orthorhombic supercell.


 Subroutine GETGRP returns: Found  4 space group operations
 (whereof  4 operations were pure point group operations)
 out of a pool of  8 trial point group operations.


The dynamic configuration has the point symmetry C_2v.


Analysis of constrained symmetry for selective dynamics:
=====================================================================
 Subroutine PRICEL returns:
 Original cell was already a primitive cell.
 

 Routine SETGRP: Setting up the symmetry group for a 
 simple orthorhombic supercell.


 Subroutine GETGRP returns: Found  4 space group operations
 (whereof  4 operations were pure point group operations)
 out of a pool of  8 trial point group operations.


The constrained configuration has the point symmetry C_2v.


Analysis of structural, dynamic, and magnetic symmetry:
=====================================================================
 Subroutine PRICEL returns:
 Original cell was already a primitive cell.
 

 Routine SETGRP: Setting up the symmetry group for a 
 simple orthorhombic supercell.


 Subroutine GETGRP returns: Found  1 space group operations
 (whereof  1 operations were pure point group operations)
 out of a pool of  8 trial point group operations.


The (compounded) configuration has the point symmetry C_1 .


 Subroutine INISYM returns: Found  1 space group operations
 (whereof  1 operations are pure point group operations),
 and found     1 'primitive' translations

 
 
 KPOINTS: Automatic generation                    

Automatic generation of k-mesh.
Space group operators:
 irot       det(A)        alpha          n_x          n_y          n_z        tau_x        tau_y        tau_z
    1     1.000000     0.000000     1.000000     0.000000     0.000000     0.000000     0.000000     0.000000
 
 Subroutine IBZKPT returns following result:
 ===========================================
 
 Found      4 irreducible k-points:
 
 Following reciprocal coordinates:
            Coordinates               Weight
  0.250000  0.250000  0.000000      1.000000
 -0.250000  0.250000  0.000000      1.000000
  0.250000 -0.250000  0.000000      1.000000
 -0.250000 -0.250000  0.000000      1.000000
 
 Following cartesian coordinates:
            Coordinates               Weight
  0.125000  0.083333  0.000000      1.000000
 -0.125000  0.083333  0.000000      1.000000
  0.125000 -0.083333  0.000000      1.000000
 -0.125000 -0.083333  0.000000      1.000000
 

 ----------------------------------------------------------------------------- 
|                                                                             |
|           W    W    AA    RRRRR   N    N  II  N    N   GGGG   !!!           |
|           W    W   A  A   R    R  NN   N  II  NN   N  G    G  !!!           |
|           W    W  A    A  R    R  N N  N  II  N N  N  G       !!!           |
|           W WW W  AAAAAA  RRRRR   N  N N  II  N  N N  G  GGG   !            |
|           WW  WW  A    A  R   R   N   NN  II  N   NN  G    G                |
|           W    W  A    A  R    R  N    N  II  N    N   GGGG   !!!           |
|                                                                             |
|      The number of bands has been changed from the values supplied          |
|      in the INCAR file. This is a result of running the parallel version.   |
|      The orbitals not found in the WAVECAR file will be initialized with    |
|      random numbers, which is usually adequate. For correlated              |
|      calculations, however, you should redo the groundstate calculation.    |
|      I found NBANDS    =       20  now  NBANDS  =      24                   |
|                                                                             |
 ----------------------------------------------------------------------------- 



--------------------------------------------------------------------------------------------------------




 Dimension of arrays:
   k-points           NKPTS =      4   k-points in BZ     NKDIM =      4   number of bands    NBANDS=     24
   number of dos      NEDOS =    301   number of ions     NIONS =      2
   non local maximal  LDIM  =      4   non local SUM 2l+1 LMDIM =      8
   total plane-waves  NPLWV =  12288
   max r-space proj   IRMAX =   5279   max aug-charges    IRDMAX=  53334
   dimension x,y,z NGX =    16 NGY =   24 NGZ =   32
   dimension x,y,z NGXF=    32 NGYF=   48 NGZF=   64
   support grid    NGXF=    64 NGYF=   96 NGZF=  128
   ions per type =               1   1
   NGX,Y,Z   is equivalent  to a cutoff of  13.30, 13.30, 13.30 a.u.
   NGXF,Y,Z  is equivalent  to a cutoff of  26.60, 26.60, 26.60 a.u.

 SYSTEM =  unknown system                          
 POSCAR =  sisl output                             

 Startparameter for this run:
   NWRITE =      2    write-flag & timer
   PREC   = accura    normal or accurate (medium, high low for compatibility)
   ISTART =      0    job   : 0-new  1-cont  2-samecut
   ICHARG =      2    charge: 1-file 2-atom 10-const
   ISPIN  =      1    spin polarized calculation?
   LNONCOLLINEAR =      T non collinear calculations
   LSORBIT =      T    spin-orbit coupling
   INIWAV =      1    electr: 0-lowe 1-rand  2-diag
   LASPH  =      F    aspherical Exc in radial PAW
   METAGGA=      F    non-selfconsistent MetaGGA calc.

 Electronic Relaxation 1
   ENCUT  =  600.0 eV  44.10 Ry    6.64 a.u.   3.99  5.99  7.99*2*pi/ulx,y,z
   ENINI  =  600.0     initial cutoff
   ENAUG  =  627.1 eV  augmentation charge cutoff
   NELM   =     60;   NELMIN=  2; NELMDL=  0     # of ELM steps 
   EDIFF  = 0.1E-05   stopping-criterion for ELM
   LREAL  =      T    real-space projection
   NLSPLINE    = F    spline interpolate recip. space projectors
   LCOMPAT=      F    compatible to vasp.4.4
   GGA_COMPAT  = F    GGA compatible to vasp.4.4-vasp.4.6
   LMAXPAW     = -100 max onsite density
   LMAXMIX     =    4 max onsite mixed and CHGCAR
   VOSKOWN=      0    Vosko Wilk Nusair interpolation
   ROPT   =   -0.00025  -0.00025
 Ionic relaxation
   EDIFFG = -.1E-01   stopping-criterion for IOM
   NSW    =   1000    number of steps for IOM
   NBLOCK =      1;   KBLOCK =   1000    inner block; outer block 
   IBRION =      2    ionic relax: 0-MD 1-quasi-New 2-CG
   NFREE  =      1    steps in history (QN), initial steepest desc. (CG)
   ISIF   =      2    stress and relaxation
   IWAVPR =     11    prediction:  0-non 1-charg 2-wave 3-comb
   ISYM   =      2    0-nonsym 1-usesym 2-fastsym
   LCORR  =      T    Harris-Foulkes like correction to forces

   POTIM  = 0.5000    time-step for ionic-motion
   TEIN   =    0.0    initial temperature
   TEBEG  =    0.0;   TEEND  =   0.0 temperature during run
   SMASS  =  -3.00    Nose mass-parameter (am)
   estimated Nose-frequenzy (Omega)   =  0.10E-29 period in steps =****** mass=  -0.914E-28a.u.
   SCALEE = 1.0000    scale energy and forces
   NPACO  =    256;   APACO  = 16.0  distance and # of slots for P.C.
   PSTRESS=    0.0 pullay stress

  Mass of Ions in am
   POMASS =  14.00 16.00
  Ionic Valenz
   ZVAL   =   5.00  6.00
  Atomic Wigner-Seitz radii
   RWIGS  =  -1.00 -1.00
  virtual crystal weights 
   VCA    =   1.00  1.00
   NELECT =      11.0000    total number of electrons
   NUPDOWN=      -1.0000    fix difference up-down

 DOS related values:
   EMIN   =  10.00;   EMAX   =-10.00  energy-range for DOS
   EFERMI =   0.00
   ISMEAR =     1;   SIGMA  =   0.10  broadening in eV -4-tet -1-fermi 0-gaus

 Electronic relaxation 2 (details)
   IALGO  =     68    algorithm
   LDIAG  =      T    sub-space diagonalisation (order eigenvalues)
   LSUBROT=      F    optimize rotation matrix (better conditioning)
   TURBO    =      0    0=normal 1=particle mesh
   IRESTART =      0    0=no restart 2=restart with 2 vectors
   NREBOOT  =      0    no. of reboots
   NMIN     =      0    reboot dimension
   EREF     =   0.00    reference energy to select bands
   IMIX   =      4    mixing-type and parameters
     AMIX     =   0.40;   BMIX     =  1.00
     AMIX_MAG =   1.60;   BMIX_MAG =  1.00
     AMIN     =   0.10
     WC   =   100.;   INIMIX=   1;  MIXPRE=   1;  MAXMIX= -45

 Intra band minimization:
   WEIMIN = 0.0010     energy-eigenvalue tresh-hold
   EBREAK =  0.10E-07  absolut break condition
   DEPER  =   0.30     relativ break condition  

   TIME   =   0.40     timestep for ELM

  volume/ion in A,a.u.               =      12.00        80.98
  Fermi-wavevector in a.u.,A,eV,Ry     =   1.262221  2.385251 21.676818  1.593201
  Thomas-Fermi vector in A             =   2.395640
 
 Write flags
   LWAVE        =      F    write WAVECAR
   LDOWNSAMPLE  =      F    k-point downsampling of WAVECAR
   LCHARG       =      T    write CHGCAR
   LVTOT        =      F    write LOCPOT, total local potential
   LVHAR        =      F    write LOCPOT, Hartree potential only
   LELF         =      F    write electronic localiz. function (ELF)
   LORBIT       =      0    0 simple, 1 ext, 2 COOP (PROOUT), +10 PAW based schemes


 Dipole corrections
   LMONO  =      F    monopole corrections only (constant potential shift)
   LDIPOL =      F    correct potential (dipole corrections)
   IDIPOL =      0    1-x, 2-y, 3-z, 4-all directions 
   EPSILON=  1.0000000 bulk dielectric constant

 Exchange correlation treatment:
   GGA     =    --    GGA type
   LEXCH   =     8    internal setting for exchange type
   VOSKOWN=      0    Vosko Wilk Nusair interpolation
   LHFCALC =     F    Hartree Fock is set to
   LHFONE  =     F    Hartree Fock one center treatment
   AEXX    =    0.0000 exact exchange contribution

 Linear response parameters
   LEPSILON=     F    determine dielectric tensor
   LRPA    =     F    only Hartree local field effects (RPA)
   LNABLA  =     F    use nabla operator in PAW spheres
   LVEL    =     F    velocity operator in full k-point grid
   LINTERFAST=   F  fast interpolation
   KINTER  =     0    interpolate to denser k-point grid
   CSHIFT  =0.1000    complex shift for real part using Kramers Kronig
   OMEGAMAX=  -1.0    maximum frequency
   DEG_THRESHOLD= 0.2000000E-02 threshold for treating states as degnerate
   RTIME   =   -0.100 relaxation time in fs
  (WPLASMAI=    0.000 imaginary part of plasma frequency in eV, 0.658/RTIME)
   DFIELD  = 0.0000000 0.0000000 0.0000000 field for delta impulse in time
 
 Orbital magnetization related:
   ORBITALMAG=     F  switch on orbital magnetization
   LCHIMAG   =     F  perturbation theory with respect to B field
   DQ        =  0.001000  dq finite difference perturbation B field
   LLRAUG    =     F  two centre corrections for induced B field



--------------------------------------------------------------------------------------------------------


 conjugate gradient relaxation of ions
   using selective dynamics as specified on POSCAR
 charge density and potential will be updated during run
 non collinear spin polarized calculation
 RMM-DIIS sequential band-by-band and
  variant of blocked Davidson during initial phase
 perform sub-space diagonalisation
    before iterative eigenvector-optimisation
 modified Broyden-mixing scheme, WC =      100.0
 initial mixing is a Kerker type mixing with AMIX =  0.4000 and BMIX =      1.0000
 Hartree-type preconditioning will be used
 using additional bands           18
 real space projection scheme for non local part
 calculate Harris-corrections to forces 
   (improved forces if not selfconsistent)
 use gradient corrections 
 use of overlap-Matrix (Vanderbilt PP)
 Methfessel and Paxton  Order N= 1 SIGMA  =   0.10


--------------------------------------------------------------------------------------------------------


  energy-cutoff  :      600.00
  volume of cell :       24.00
      direct lattice vectors                 reciprocal lattice vectors
     2.000000000  0.000000000  0.000000000     0.500000000  0.000000000  0.000000000
     0.000000000  3.000000000  0.000000000     0.000000000  0.333333333  0.000000000
     0.000000000  0.000000000  4.000000000     0.000000000  0.000000000  0.250000000

  length of vectors
     2.000000000  3.000000000  4.000000000     0.500000000  0.333333333  0.250000000


 
 k-points in units of 2pi/SCALE and weight: Automatic generation                    
   0.12500000  0.08333333  0.00000000       0.250
  -0.12500000  0.08333333  0.00000000       0.250
   0.12500000 -0.08333333  0.00000000       0.250
  -0.12500000 -0.08333333  0.00000000       0.250
 
 k-points in reciprocal lattice and weights: Automatic generation                    
   0.25000000  0.25000000  0.00000000       0.250
  -0.25000000  0.25000000  0.00000000       0.250
   0.25000000 -0.25000000  0.00000000       0.250
  -0.25000000 -0.25000000  0.00000000       0.250
 
 position of ions in fractional coordinates (direct lattice) 
   0.50000000  0.50000000  0.55967097
   0.50000000  0.50000000  0.26270557
 
 position of ions in cartesian coordinates  (Angst):
   1.00000000  1.50000000  2.23868389
   1.00000000  1.50000000  1.05082228
 
 Euler angles ALPHA=     0.0000000  BETA=     0.0000000

 transformation matrix from SAXIS to cartesian coordinates
 ---------------------------------------------------------
     1.0000000 m_x     0.0000000 m_y     0.0000000 m_z
     0.0000000 m_x     1.0000000 m_y     0.0000000 m_z
     0.0000000 m_x     0.0000000 m_y     1.0000000 m_z

 transformation matrix from cartesian coordinates to SAXIS
 ---------------------------------------------------------
     1.0000000 m_x     0.0000000 m_y     0.0000000 m_z
     0.0000000 m_x     1.0000000 m_y     0.0000000 m_z
     0.0000000 m_x     0.0000000 m_y     1.0000000 m_z




--------------------------------------------------------------------------------------------------------


 k-point  1 :   0.2500 0.2500 0.0000  plane waves:    1596
 k-point  2 :  -0.2500 0.2500 0.0000  plane waves:    1596
 k-point  3 :   0.2500-0.2500 0.0000  plane waves:    1596
 k-point  4 :  -0.2500-0.2500 0.0000  plane waves:    1596

 maximum and minimum number of plane-waves per node :      1596     1596

 maximum number of plane-waves:      1596
 maximum index in each direction: 
   IXMAX=    4   IYMAX=    6   IZMAX=    7
   IXMIN=   -4   IYMIN=   -6   IZMIN=   -7


 serial   3D FFT for wavefunctions
 parallel 3D FFT for charge:
    minimum data exchange during FFTs selected (reduces bandwidth)


 total amount of memory used by VASP MPI-rank0    37494. kBytes
=======================================================================

   base      :      30000. kBytes
   nonlr-proj:        764. kBytes
   fftplans  :       2711. kBytes
   grid      :       3784. kBytes
   one-center:         24. kBytes
   wavefun   :        211. kBytes
 
     INWAV:  cpu time    0.0000: real time    0.0001
 Broyden mixing: mesh for mixing (old mesh)
   NGX =  7   NGY = 11   NGZ = 15
  (NGX  = 32   NGY  = 48   NGZ  = 64)
  gives a total of   1155 points

 initial charge density was supplied:
 charge density of overlapping atoms calculated
 number of electron      11.0000000 magnetization       2.0000000      2.0000000      2.0000000
 keeping initial charge density in first step


--------------------------------------------------------------------------------------------------------


 Maximum index for non-local projection operator         5061
 Maximum index for augmentation-charges         4385 (set IRDMAX)


--------------------------------------------------------------------------------------------------------


 First call to EWALD:  gamma=   0.614
 Maximum number of real-space cells 4x 3x 2
 Maximum number of reciprocal cells 2x 3x 4

    FEWALD:  cpu time    0.0010: real time    0.0011


--------------------------------------- Iteration      1(   1)  ---------------------------------------


    POTLOK:  cpu time    0.0166: real time    0.5218
    SETDIJ:  cpu time    0.0133: real time    0.0137
     EDDAV:  cpu time    0.0326: real time    0.0352
       DOS:  cpu time    0.0003: real time    0.0005
    --------------------------------------------
      LOOP:  cpu time    0.0630: real time    0.5712

 eigenvalue-minimisations  :   192
 total energy-change (2. order) : 0.5547164E+02  (-0.6194921E+03)
 number of electron      11.0000000 magnetization       2.0000000      2.0000000      2.0000000
 augmentation part       11.0000000 magnetization       2.0000000      2.0000000      2.0000000

 Free energy of the ion-electron system (eV)
  ---------------------------------------------------
  alpha Z        PSCENC =        20.47869267
  Ewald energy   TEWEN  =      -397.32884096
  -Hartree energ DENC   =      -264.42272684
  -exchange      EXHF   =         0.00000000
  -V(xc)+E(xc)   XCENC  =        48.26794867
  PAW double counting   =       357.28748739     -360.48061234
  entropy T*S    EENTRO =        -0.00302970
  eigenvalues    EBANDS =       -45.22756877
  atomic energy  EATOM  =       696.90028792
  Solvation  Ediel_sol  =         0.00000000
  ---------------------------------------------------
  free energy    TOTEN  =        55.47163803 eV

  energy without entropy =       55.47466773  energy(sigma->0) =       55.47264793


--------------------------------------------------------------------------------------------------------




--------------------------------------- Iteration      1(   2)  ---------------------------------------


     EDDAV:  cpu time    0.0353: real time    0.0356
       DOS:  cpu time    0.0001: real time    0.0001
    --------------------------------------------
      LOOP:  cpu time    0.0354: real time    0.0357

 eigenvalue-minimisations  :   276
 total energy-change (2. order) :-0.6361697E+02  (-0.5946135E+02)
 number of electron      11.0000000 magnetization       2.0000000      2.0000000      2.0000000
 augmentation part       11.0000000 magnetization       2.0000000      2.0000000      2.0000000

 Free energy of the ion-electron system (eV)
  ---------------------------------------------------
  alpha Z        PSCENC =        20.47869267
  Ewald energy   TEWEN  =      -397.32884096
  -Hartree energ DENC   =      -264.42272684
  -exchange      EXHF   =         0.00000000
  -V(xc)+E(xc)   XCENC  =        48.26794867
  PAW double counting   =       357.28748739     -360.48061234
  entropy T*S    EENTRO =         0.00081383
  eigenvalues    EBANDS =      -108.84838724
  atomic energy  EATOM  =       696.90028792
  Solvation  Ediel_sol  =         0.00000000
  ---------------------------------------------------
  free energy    TOTEN  =        -8.14533691 eV

  energy without entropy =       -8.14615074  energy(sigma->0) =       -8.14560818


--------------------------------------------------------------------------------------------------------




--------------------------------------- Iteration      1(   3)  ---------------------------------------


     EDDAV:  cpu time    0.0287: real time    0.0293
       DOS:  cpu time    0.0002: real time    0.0002
    --------------------------------------------
      LOOP:  cpu time    0.0289: real time    0.0294

 eigenvalue-minimisations  :   216
 total energy-change (2. order) :-0.2306617E+01  (-0.2303442E+01)
 number of electron      11.0000000 magnetization       2.0000000      2.0000000      2.0000000
 augmentation part       11.0000000 magnetization       2.0000000      2.0000000      2.0000000

 Free energy of the ion-electron system (eV)
  ---------------------------------------------------
  alpha Z        PSCENC =        20.47869267
  Ewald energy   TEWEN  =      -397.32884096
  -Hartree energ DENC   =      -264.42272684
  -exchange      EXHF   =         0.00000000
  -V(xc)+E(xc)   XCENC  =        48.26794867
  PAW double counting   =       357.28748739     -360.48061234
  entropy T*S    EENTRO =         0.00289899
  eigenvalues    EBANDS =      -111.15708980
  atomic energy  EATOM  =       696.90028792
  Solvation  Ediel_sol  =         0.00000000
  ---------------------------------------------------
  free energy    TOTEN  =       -10.45195431 eV

  energy without entropy =      -10.45485330  energy(sigma->0) =      -10.45292064


--------------------------------------------------------------------------------------------------------




--------------------------------------- Iteration      1(   4)  ---------------------------------------


     EDDAV:  cpu time    0.0319: real time    0.0322
       DOS:  cpu time    0.0002: real time    0.0002
    --------------------------------------------
      LOOP:  cpu time    0.0321: real time    0.0324

 eigenvalue-minimisations  :   240
 total energy-change (2. order) :-0.1077941E-01  (-0.1077911E-01)
 number of electron      11.0000000 magnetization       2.0000000      2.0000000      2.0000000
 augmentation part       11.0000000 magnetization       2.0000000      2.0000000      2.0000000

 Free energy of the ion-electron system (eV)
  ---------------------------------------------------
  alpha Z        PSCENC =        20.47869267
  Ewald energy   TEWEN  =      -397.32884096
  -Hartree energ DENC   =      -264.42272684
  -exchange      EXHF   =         0.00000000
  -V(xc)+E(xc)   XCENC  =        48.26794867
  PAW double counting   =       357.28748739     -360.48061234
  entropy T*S    EENTRO =         0.00289899
  eigenvalues    EBANDS =      -111.16786921
  atomic energy  EATOM  =       696.90028792
  Solvation  Ediel_sol  =         0.00000000
  ---------------------------------------------------
  free energy    TOTEN  =       -10.46273371 eV

  energy without entropy =      -10.46563271  energy(sigma->0) =      -10.46370005


--------------------------------------------------------------------------------------------------------




--------------------------------------- Iteration      1(   5)  ---------------------------------------


     EDDAV:  cpu time    0.0282: real time    0.0284
       DOS:  cpu time    0.0002: real time    0.0002
    CHARGE:  cpu time    0.0138: real time    0.0138
    MIXING:  cpu time    0.0007: real time    0.0011
    --------------------------------------------
      LOOP:  cpu time    0.0428: real time    0.0435

 eigenvalue-minimisations  :   204
 total energy-change (2. order) :-0.7661059E-04  (-0.7661050E-04)
 number of electron      11.0000000 magnetization       0.3801808      0.3801755      0.3803101
 augmentation part        0.7859140 magnetization      -0.0824685     -0.0824682     -0.0824323

 Broyden mixing:
  rms(total) = 0.12121E+01    rms(broyden)= 0.12108E+01
  rms(prec ) = 0.14235E+01
  weight for this iteration     100.00

 Free energy of the ion-electron system (eV)
  ---------------------------------------------------
  alpha Z        PSCENC =        20.47869267
  Ewald energy   TEWEN  =      -397.32884096
  -Hartree energ DENC   =      -264.42272684
  -exchange      EXHF   =         0.00000000
  -V(xc)+E(xc)   XCENC  =        48.26794867
  PAW double counting   =       357.28748739     -360.48061234
  entropy T*S    EENTRO =         0.00289899
  eigenvalues    EBANDS =      -111.16794582
  atomic energy  EATOM  =       696.90028792
  Solvation  Ediel_sol  =         0.00000000
  ---------------------------------------------------
  free energy    TOTEN  =       -10.46281033 eV

  energy without entropy =      -10.46570932  energy(sigma->0) =      -10.46377666


--------------------------------------------------------------------------------------------------------




--------------------------------------- Iteration      1(   6)  ---------------------------------------


    POTLOK:  cpu time    0.0137: real time    0.0138
    SETDIJ:  cpu time    0.0115: real time    0.0116
    EDDIAG:  cpu time    0.0071: real time    0.0076
  RMM-DIIS:  cpu time    0.0161: real time    0.0162
    ORTHCH:  cpu time    0.0007: real time    0.0007
       DOS:  cpu time    0.0001: real time    0.0001
    CHARGE:  cpu time    0.0109: real time    0.0109
    MIXING:  cpu time    0.0005: real time    0.0005
    --------------------------------------------
      LOOP:  cpu time    0.0606: real time    0.0614

 eigenvalue-minimisations  :   192
 total energy-change (2. order) :-0.1056523E+01  (-0.1208038E+00)
 number of electron      11.0000000 magnetization       0.5617195      0.5617602      0.5616389
 augmentation part        0.7446613 magnetization       0.0884554      0.0884622      0.0884629

 Broyden mixing:
  rms(total) = 0.42450E+00    rms(broyden)= 0.42422E+00
  rms(prec ) = 0.58574E+00
  weight for this iteration     100.00

 eigenvalues of (default mixing * dielectric matrix)
  average eigenvalue GAMMA=   0.7742
  0.7742

 Free energy of the ion-electron system (eV)
  ---------------------------------------------------
  alpha Z        PSCENC =        20.47869267
  Ewald energy   TEWEN  =      -397.32884096
  -Hartree energ DENC   =      -269.32208382
  -exchange      EXHF   =         0.00000000
  -V(xc)+E(xc)   XCENC  =        47.91595425
  PAW double counting   =       396.38170673     -399.66470702
  entropy T*S    EENTRO =         0.00289897
  eigenvalues    EBANDS =      -106.88324208
  atomic energy  EATOM  =       696.90028792
  Solvation  Ediel_sol  =         0.00000000
  ---------------------------------------------------
  free energy    TOTEN  =       -11.51933335 eV

  energy without entropy =      -11.52223232  energy(sigma->0) =      -11.52029967


--------------------------------------------------------------------------------------------------------




--------------------------------------- Iteration      1(   7)  ---------------------------------------


    POTLOK:  cpu time    0.0134: real time    0.0135
    SETDIJ:  cpu time    0.0113: real time    0.0113
    EDDIAG:  cpu time    0.0065: real time    0.0065
  RMM-DIIS:  cpu time    0.0155: real time    0.0156
    ORTHCH:  cpu time    0.0008: real time    0.0009
       DOS:  cpu time    0.0001: real time    0.0001
    CHARGE:  cpu time    0.0110: real time    0.0111
    MIXING:  cpu time    0.0005: real time    0.0005
    --------------------------------------------
      LOOP:  cpu time    0.0592: real time    0.0596

 eigenvalue-minimisations  :   192
 total energy-change (2. order) :-0.1440484E+00  (-0.1739683E-01)
 number of electron      11.0000000 magnetization       0.6052440      0.6052910      0.6050492
 augmentation part        0.7534297 magnetization       0.1345030      0.1345140      0.1344214

 Broyden mixing:
  rms(total) = 0.15869E+00    rms(broyden)= 0.15865E+00
  rms(prec ) = 0.26128E+00
  weight for this iteration     100.00

 eigenvalues of (default mixing * dielectric matrix)
  average eigenvalue GAMMA=   0.9448
  1.1444  0.7452

 Free energy of the ion-electron system (eV)
  ---------------------------------------------------
  alpha Z        PSCENC =        20.47869267
  Ewald energy   TEWEN  =      -397.32884096
  -Hartree energ DENC   =      -269.60627252
  -exchange      EXHF   =         0.00000000
  -V(xc)+E(xc)   XCENC  =        47.97993890
  PAW double counting   =       411.20846961     -414.50360644
  entropy T*S    EENTRO =         0.00289899
  eigenvalues    EBANDS =      -106.79494996
  atomic energy  EATOM  =       696.90028792
  Solvation  Ediel_sol  =         0.00000000
  ---------------------------------------------------
  free energy    TOTEN  =       -11.66338179 eV

  energy without entropy =      -11.66628078  energy(sigma->0) =      -11.66434812


--------------------------------------------------------------------------------------------------------




--------------------------------------- Iteration      1(   8)  ---------------------------------------


    POTLOK:  cpu time    0.0133: real time    0.0138
    SETDIJ:  cpu time    0.0116: real time    0.0117
    EDDIAG:  cpu time    0.0067: real time    0.0067
  RMM-DIIS:  cpu time    0.0167: real time    0.0168
    ORTHCH:  cpu time    0.0008: real time    0.0008
       DOS:  cpu time    0.0001: real time    0.0001
    CHARGE:  cpu time    0.0125: real time    0.0126
    MIXING:  cpu time    0.0007: real time    0.0007
    --------------------------------------------
      LOOP:  cpu time    0.0624: real time    0.0631

 eigenvalue-minimisations  :   192
 total energy-change (2. order) : 0.1854919E-01  (-0.3321974E-02)
 number of electron      11.0000000 magnetization       0.5825457      0.5825629      0.5827133
 augmentation part        0.7432976 magnetization       0.1121834      0.1121859      0.1122204

 Broyden mixing:
  rms(total) = 0.68341E-01    rms(broyden)= 0.68318E-01
  rms(prec ) = 0.11269E+00
  weight for this iteration     100.00

 eigenvalues of (default mixing * dielectric matrix)
  average eigenvalue GAMMA=   1.1428
  1.9169  0.8151  0.6963

 Free energy of the ion-electron system (eV)
  ---------------------------------------------------
  alpha Z        PSCENC =        20.47869267
  Ewald energy   TEWEN  =      -397.32884096
  -Hartree energ DENC   =      -270.91047547
  -exchange      EXHF   =         0.00000000
  -V(xc)+E(xc)   XCENC  =        48.12777220
  PAW double counting   =       431.35389913     -434.65007029
  entropy T*S    EENTRO =         0.00289899
  eigenvalues    EBANDS =      -105.61899678
  atomic energy  EATOM  =       696.90028792
  Solvation  Ediel_sol  =         0.00000000
  ---------------------------------------------------
  free energy    TOTEN  =       -11.64483261 eV

  energy without entropy =      -11.64773160  energy(sigma->0) =      -11.64579894


--------------------------------------------------------------------------------------------------------




--------------------------------------- Iteration      1(   9)  ---------------------------------------


    POTLOK:  cpu time    0.0131: real time    0.0133
    SETDIJ:  cpu time    0.0116: real time    0.0117
    EDDIAG:  cpu time    0.0063: real time    0.0064
  RMM-DIIS:  cpu time    0.0155: real time    0.0156
    ORTHCH:  cpu time    0.0007: real time    0.0007
       DOS:  cpu time    0.0001: real time    0.0001
    CHARGE:  cpu time    0.0107: real time    0.0108
    MIXING:  cpu time    0.0005: real time    0.0005
    --------------------------------------------
      LOOP:  cpu time    0.0586: real time    0.0590

 eigenvalue-minimisations  :   192
 total energy-change (2. order) : 0.4276897E-05  (-0.6992032E-03)
 number of electron      11.0000000 magnetization       0.5744951      0.5745928      0.5738719
 augmentation part        0.7447388 magnetization       0.1029911      0.1030264      0.1027710

 Broyden mixing:
  rms(total) = 0.23953E-01    rms(broyden)= 0.23938E-01
  rms(prec ) = 0.35783E-01
  weight for this iteration     100.00

 eigenvalues of (default mixing * dielectric matrix)
  average eigenvalue GAMMA=   1.1014
  2.1736  0.8659  0.7593  0.6069

 Free energy of the ion-electron system (eV)
  ---------------------------------------------------
  alpha Z        PSCENC =        20.47869267
  Ewald energy   TEWEN  =      -397.32884096
  -Hartree energ DENC   =      -270.99505488
  -exchange      EXHF   =         0.00000000
  -V(xc)+E(xc)   XCENC  =        48.14994944
  PAW double counting   =       439.90451749     -443.19109323
  entropy T*S    EENTRO =         0.00289898
  eigenvalues    EBANDS =      -105.56618574
  atomic energy  EATOM  =       696.90028792
  Solvation  Ediel_sol  =         0.00000000
  ---------------------------------------------------
  free energy    TOTEN  =       -11.64482833 eV

  energy without entropy =      -11.64772731  energy(sigma->0) =      -11.64579466


--------------------------------------------------------------------------------------------------------




--------------------------------------- Iteration      1(  10)  ---------------------------------------


    POTLOK:  cpu time    0.0131: real time    0.0133
    SETDIJ:  cpu time    0.0114: real time    0.0115
    EDDIAG:  cpu time    0.0066: real time    0.0066
  RMM-DIIS:  cpu time    0.0156: real time    0.0157
    ORTHCH:  cpu time    0.0015: real time    0.0015
       DOS:  cpu time    0.0001: real time    0.0001
    CHARGE:  cpu time    0.0108: real time    0.0108
    MIXING:  cpu time    0.0005: real time    0.0005
    --------------------------------------------
      LOOP:  cpu time    0.0597: real time    0.0601

 eigenvalue-minimisations  :   192
 total energy-change (2. order) :-0.1138028E-04  (-0.4713610E-03)
 number of electron      11.0000000 magnetization       0.5752411      0.5749436      0.5759550
 augmentation part        0.7445471 magnetization       0.1042191      0.1041409      0.1041541

 Broyden mixing:
  rms(total) = 0.18596E-01    rms(broyden)= 0.18593E-01
  rms(prec ) = 0.21598E-01
  weight for this iteration     100.00

 eigenvalues of (default mixing * dielectric matrix)
  average eigenvalue GAMMA=   1.0382
  2.2650  0.9999  0.7930  0.6790  0.4543

 Free energy of the ion-electron system (eV)
  ---------------------------------------------------
  alpha Z        PSCENC =        20.47869267
  Ewald energy   TEWEN  =      -397.32884096
  -Hartree energ DENC   =      -270.91965695
  -exchange      EXHF   =         0.00000000
  -V(xc)+E(xc)   XCENC  =        48.14650481
  PAW double counting   =       442.17680256     -445.45514886
  entropy T*S    EENTRO =         0.00289899
  eigenvalues    EBANDS =      -105.64637988
  atomic energy  EATOM  =       696.90028792
  Solvation  Ediel_sol  =         0.00000000
  ---------------------------------------------------
  free energy    TOTEN  =       -11.64483971 eV

  energy without entropy =      -11.64773870  energy(sigma->0) =      -11.64580604


--------------------------------------------------------------------------------------------------------




--------------------------------------- Iteration      1(  11)  ---------------------------------------


    POTLOK:  cpu time    0.0138: real time    0.0141
    SETDIJ:  cpu time    0.0116: real time    0.0117
    EDDIAG:  cpu time    0.0065: real time    0.0065
  RMM-DIIS:  cpu time    0.0163: real time    0.0164
    ORTHCH:  cpu time    0.0007: real time    0.0007
       DOS:  cpu time    0.0001: real time    0.0001
    CHARGE:  cpu time    0.0124: real time    0.0124
    MIXING:  cpu time    0.0006: real time    0.0006
    --------------------------------------------
      LOOP:  cpu time    0.0620: real time    0.0626

 eigenvalue-minimisations  :   192
 total energy-change (2. order) :-0.1236051E-03  (-0.5160130E-03)
 number of electron      11.0000000 magnetization       0.5769873      0.5771669      0.5771421
 augmentation part        0.7447602 magnetization       0.1057955      0.1057875      0.1063081

 Broyden mixing:
  rms(total) = 0.13270E-01    rms(broyden)= 0.13265E-01
  rms(prec ) = 0.14167E-01
  weight for this iteration     100.00

 eigenvalues of (default mixing * dielectric matrix)
  average eigenvalue GAMMA=   1.0660
  2.3575  1.4010  0.7994  0.7994  0.6276  0.4112

 Free energy of the ion-electron system (eV)
  ---------------------------------------------------
  alpha Z        PSCENC =        20.47869267
  Ewald energy   TEWEN  =      -397.32884096
  -Hartree energ DENC   =      -270.86816227
  -exchange      EXHF   =         0.00000000
  -V(xc)+E(xc)   XCENC  =        48.14421927
  PAW double counting   =       443.03649824     -446.30926982
  entropy T*S    EENTRO =         0.00289898
  eigenvalues    EBANDS =      -105.70128734
  atomic energy  EATOM  =       696.90028792
  Solvation  Ediel_sol  =         0.00000000
  ---------------------------------------------------
  free energy    TOTEN  =       -11.64496332 eV

  energy without entropy =      -11.64786230  energy(sigma->0) =      -11.64592964


--------------------------------------------------------------------------------------------------------




--------------------------------------- Iteration      1(  12)  ---------------------------------------


    POTLOK:  cpu time    0.0136: real time    0.0138
    SETDIJ:  cpu time    0.0129: real time    0.0129
    EDDIAG:  cpu time    0.0065: real time    0.0065
  RMM-DIIS:  cpu time    0.0157: real time    0.0158
    ORTHCH:  cpu time    0.0007: real time    0.0007
       DOS:  cpu time    0.0001: real time    0.0001
    CHARGE:  cpu time    0.0110: real time    0.0111
    MIXING:  cpu time    0.0006: real time    0.0006
    --------------------------------------------
      LOOP:  cpu time    0.0611: real time    0.0616

 eigenvalue-minimisations  :   192
 total energy-change (2. order) : 0.3797599E-04  (-0.3024171E-03)
 number of electron      11.0000000 magnetization       0.5773387      0.5772387      0.5774582
 augmentation part        0.7449251 magnetization       0.1062343      0.1061648      0.1062005

 Broyden mixing:
  rms(total) = 0.72050E-02    rms(broyden)= 0.71922E-02
  rms(prec ) = 0.75602E-02
  weight for this iteration     100.00

 eigenvalues of (default mixing * dielectric matrix)
  average eigenvalue GAMMA=   1.0113
  2.4124  1.5952  0.8355  0.8067  0.6540  0.4717  0.3033

 Free energy of the ion-electron system (eV)
  ---------------------------------------------------
  alpha Z        PSCENC =        20.47869267
  Ewald energy   TEWEN  =      -397.32884096
  -Hartree energ DENC   =      -270.84927179
  -exchange      EXHF   =         0.00000000
  -V(xc)+E(xc)   XCENC  =        48.14302302
  PAW double counting   =       443.44230387     -446.71224829
  entropy T*S    EENTRO =         0.00289899
  eigenvalues    EBANDS =      -105.72177076
  atomic energy  EATOM  =       696.90028792
  Solvation  Ediel_sol  =         0.00000000
  ---------------------------------------------------
  free energy    TOTEN  =       -11.64492534 eV

  energy without entropy =      -11.64782433  energy(sigma->0) =      -11.64589167


--------------------------------------------------------------------------------------------------------




--------------------------------------- Iteration      1(  13)  ---------------------------------------


    POTLOK:  cpu time    0.0131: real time    0.0133
    SETDIJ:  cpu time    0.0114: real time    0.0114
    EDDIAG:  cpu time    0.0063: real time    0.0064
  RMM-DIIS:  cpu time    0.0154: real time    0.0155
    ORTHCH:  cpu time    0.0007: real time    0.0008
       DOS:  cpu time    0.0001: real time    0.0001
    CHARGE:  cpu time    0.0106: real time    0.0107
    MIXING:  cpu time    0.0006: real time    0.0006
    --------------------------------------------
      LOOP:  cpu time    0.0584: real time    0.0587

 eigenvalue-minimisations  :   192
 total energy-change (2. order) :-0.3377447E-04  (-0.1018924E-03)
 number of electron      11.0000000 magnetization       0.5773701      0.5772365      0.5777352
 augmentation part        0.7449252 magnetization       0.1063216      0.1064695      0.1060513

 Broyden mixing:
  rms(total) = 0.62617E-02    rms(broyden)= 0.62476E-02
  rms(prec ) = 0.64962E-02
  weight for this iteration     100.00

 eigenvalues of (default mixing * dielectric matrix)
  average eigenvalue GAMMA=   0.9790
  2.4640  1.7424  0.9173  0.7897  0.7314  0.5856  0.3827  0.2187

 Free energy of the ion-electron system (eV)
  ---------------------------------------------------
  alpha Z        PSCENC =        20.47869267
  Ewald energy   TEWEN  =      -397.32884096
  -Hartree energ DENC   =      -270.85526575
  -exchange      EXHF   =         0.00000000
  -V(xc)+E(xc)   XCENC  =        48.14317097
  PAW double counting   =       443.49912278     -446.76886816
  entropy T*S    EENTRO =         0.00289899
  eigenvalues    EBANDS =      -105.71615756
  atomic energy  EATOM  =       696.90028792
  Solvation  Ediel_sol  =         0.00000000
  ---------------------------------------------------
  free energy    TOTEN  =       -11.64495911 eV

  energy without entropy =      -11.64785810  energy(sigma->0) =      -11.64592544


--------------------------------------------------------------------------------------------------------




--------------------------------------- Iteration      1(  14)  ---------------------------------------


    POTLOK:  cpu time    0.0130: real time    0.0132
    SETDIJ:  cpu time    0.0117: real time    0.0118
    EDDIAG:  cpu time    0.0063: real time    0.0064
  RMM-DIIS:  cpu time    0.0159: real time    0.0159
    ORTHCH:  cpu time    0.0009: real time    0.0009
       DOS:  cpu time    0.0001: real time    0.0001
    CHARGE:  cpu time    0.0116: real time    0.0117
    MIXING:  cpu time    0.0007: real time    0.0007
    --------------------------------------------
      LOOP:  cpu time    0.0603: real time    0.0606

 eigenvalue-minimisations  :   192
 total energy-change (2. order) : 0.5316426E-04  (-0.5749993E-04)
 number of electron      11.0000000 magnetization       0.5771521      0.5773349      0.5775488
 augmentation part        0.7449014 magnetization       0.1060796      0.1060163      0.1063468

 Broyden mixing:
  rms(total) = 0.26461E-02    rms(broyden)= 0.26398E-02
  rms(prec ) = 0.28738E-02
  weight for this iteration     100.00

 eigenvalues of (default mixing * dielectric matrix)
  average eigenvalue GAMMA=   0.9355
  2.4722  1.7703  0.9407  0.7594  0.7594  0.5785  0.5785  0.3416  0.2185

 Free energy of the ion-electron system (eV)
  ---------------------------------------------------
  alpha Z        PSCENC =        20.47869267
  Ewald energy   TEWEN  =      -397.32884096
  -Hartree energ DENC   =      -270.86449391
  -exchange      EXHF   =         0.00000000
  -V(xc)+E(xc)   XCENC  =        48.14368662
  PAW double counting   =       443.53981277     -446.80944836
  entropy T*S    EENTRO =         0.00289899
  eigenvalues    EBANDS =      -105.70750168
  atomic energy  EATOM  =       696.90028792
  Solvation  Ediel_sol  =         0.00000000
  ---------------------------------------------------
  free energy    TOTEN  =       -11.64490595 eV

  energy without entropy =      -11.64780494  energy(sigma->0) =      -11.64587228


--------------------------------------------------------------------------------------------------------




--------------------------------------- Iteration      1(  15)  ---------------------------------------


    POTLOK:  cpu time    0.0135: real time    0.0137
    SETDIJ:  cpu time    0.0123: real time    0.0124
    EDDIAG:  cpu time    0.0066: real time    0.0066
  RMM-DIIS:  cpu time    0.0168: real time    0.0169
    ORTHCH:  cpu time    0.0008: real time    0.0008
       DOS:  cpu time    0.0001: real time    0.0001
    CHARGE:  cpu time    0.0112: real time    0.0112
    MIXING:  cpu time    0.0007: real time    0.0007
    --------------------------------------------
      LOOP:  cpu time    0.0619: real time    0.0623

 eigenvalue-minimisations  :   192
 total energy-change (2. order) : 0.8052253E-06  (-0.9620068E-04)
 number of electron      11.0000000 magnetization       0.5772300      0.5772143      0.5774274
 augmentation part        0.7448827 magnetization       0.1059262      0.1062780      0.1060741

 Broyden mixing:
  rms(total) = 0.25194E-02    rms(broyden)= 0.25175E-02
  rms(prec ) = 0.25740E-02
  weight for this iteration     100.00

 eigenvalues of (default mixing * dielectric matrix)
  average eigenvalue GAMMA=   0.9615
  2.4884  1.8585  1.3413  0.8451  0.8451  0.7121  0.6100  0.4033  0.2918  0.2188

 Free energy of the ion-electron system (eV)
  ---------------------------------------------------
  alpha Z        PSCENC =        20.47869267
  Ewald energy   TEWEN  =      -397.32884096
  -Hartree energ DENC   =      -270.87221646
  -exchange      EXHF   =         0.00000000
  -V(xc)+E(xc)   XCENC  =        48.14435353
  PAW double counting   =       443.55557783     -446.82495303
  entropy T*S    EENTRO =         0.00289899
  eigenvalues    EBANDS =      -105.70070562
  atomic energy  EATOM  =       696.90028792
  Solvation  Ediel_sol  =         0.00000000
  ---------------------------------------------------
  free energy    TOTEN  =       -11.64490515 eV

  energy without entropy =      -11.64780413  energy(sigma->0) =      -11.64587147


--------------------------------------------------------------------------------------------------------




--------------------------------------- Iteration      1(  16)  ---------------------------------------


    POTLOK:  cpu time    0.0132: real time    0.0134
    SETDIJ:  cpu time    0.0116: real time    0.0117
    EDDIAG:  cpu time    0.0063: real time    0.0064
  RMM-DIIS:  cpu time    0.0154: real time    0.0154
    ORTHCH:  cpu time    0.0008: real time    0.0008
       DOS:  cpu time    0.0001: real time    0.0001
    CHARGE:  cpu time    0.0107: real time    0.0108
    MIXING:  cpu time    0.0008: real time    0.0008
    --------------------------------------------
      LOOP:  cpu time    0.0588: real time    0.0592

 eigenvalue-minimisations  :   192
 total energy-change (2. order) :-0.2298312E-04  (-0.3988892E-04)
 number of electron      11.0000000 magnetization       0.5771779      0.5771560      0.5775357
 augmentation part        0.7448783 magnetization       0.1061728      0.1061882      0.1058834

 Broyden mixing:
  rms(total) = 0.15356E-02    rms(broyden)= 0.15337E-02
  rms(prec ) = 0.15629E-02
  weight for this iteration     100.00

 eigenvalues of (default mixing * dielectric matrix)
  average eigenvalue GAMMA=   0.9333
  2.5064  1.9966  1.5351  0.8819  0.8127  0.7235  0.6069  0.4519  0.3079  0.2220
  0.2220

 Free energy of the ion-electron system (eV)
  ---------------------------------------------------
  alpha Z        PSCENC =        20.47869267
  Ewald energy   TEWEN  =      -397.32884096
  -Hartree energ DENC   =      -270.87471275
  -exchange      EXHF   =         0.00000000
  -V(xc)+E(xc)   XCENC  =        48.14440259
  PAW double counting   =       443.55707032     -446.82634228
  entropy T*S    EENTRO =         0.00289899
  eigenvalues    EBANDS =      -105.69838462
  atomic energy  EATOM  =       696.90028792
  Solvation  Ediel_sol  =         0.00000000
  ---------------------------------------------------
  free energy    TOTEN  =       -11.64492813 eV

  energy without entropy =      -11.64782712  energy(sigma->0) =      -11.64589446


--------------------------------------------------------------------------------------------------------




--------------------------------------- Iteration      1(  17)  ---------------------------------------


    POTLOK:  cpu time    0.0132: real time    0.0134
    SETDIJ:  cpu time    0.0113: real time    0.0113
    EDDIAG:  cpu time    0.0063: real time    0.0063
  RMM-DIIS:  cpu time    0.0153: real time    0.0153
    ORTHCH:  cpu time    0.0008: real time    0.0008
       DOS:  cpu time    0.0001: real time    0.0001
    CHARGE:  cpu time    0.0114: real time    0.0115
    MIXING:  cpu time    0.0011: real time    0.0011
    --------------------------------------------
      LOOP:  cpu time    0.0594: real time    0.0598

 eigenvalue-minimisations  :   192
 total energy-change (2. order) :-0.1405056E-04  (-0.1644462E-04)
 number of electron      11.0000000 magnetization       0.5771366      0.5771617      0.5775973
 augmentation part        0.7448793 magnetization       0.1060551      0.1059823      0.1062246

 Broyden mixing:
  rms(total) = 0.73068E-03    rms(broyden)= 0.72838E-03
  rms(prec ) = 0.76597E-03
  weight for this iteration     100.00

 eigenvalues of (default mixing * dielectric matrix)
  average eigenvalue GAMMA=   0.9326
  2.5593  2.2268  1.6167  0.9028  0.7889  0.7889  0.6139  0.6139  0.3716  0.3003
  0.2175  0.1901

 Free energy of the ion-electron system (eV)
  ---------------------------------------------------
  alpha Z        PSCENC =        20.47869267
  Ewald energy   TEWEN  =      -397.32884096
  -Hartree energ DENC   =      -270.87431684
  -exchange      EXHF   =         0.00000000
  -V(xc)+E(xc)   XCENC  =        48.14433232
  PAW double counting   =       443.55399649     -446.82325016
  entropy T*S    EENTRO =         0.00289899
  eigenvalues    EBANDS =      -105.69874261
  atomic energy  EATOM  =       696.90028792
  Solvation  Ediel_sol  =         0.00000000
  ---------------------------------------------------
  free energy    TOTEN  =       -11.64494218 eV

  energy without entropy =      -11.64784117  energy(sigma->0) =      -11.64590851


--------------------------------------------------------------------------------------------------------




--------------------------------------- Iteration      1(  18)  ---------------------------------------


    POTLOK:  cpu time    0.0133: real time    0.0135
    SETDIJ:  cpu time    0.0117: real time    0.0118
    EDDIAG:  cpu time    0.0068: real time    0.0068
  RMM-DIIS:  cpu time    0.0168: real time    0.0169
    ORTHCH:  cpu time    0.0008: real time    0.0008
       DOS:  cpu time    0.0001: real time    0.0001
    CHARGE:  cpu time    0.0129: real time    0.0129
    MIXING:  cpu time    0.0010: real time    0.0010
    --------------------------------------------
      LOOP:  cpu time    0.0634: real time    0.0639

 eigenvalue-minimisations  :   192
 total energy-change (2. order) :-0.1025242E-04  (-0.9263011E-05)
 number of electron      11.0000000 magnetization       0.5771744      0.5771283      0.5776070
 augmentation part        0.7448831 magnetization       0.1059743      0.1060790      0.1062220

 Broyden mixing:
  rms(total) = 0.82932E-03    rms(broyden)= 0.82870E-03
  rms(prec ) = 0.83917E-03
  weight for this iteration     100.00

 eigenvalues of (default mixing * dielectric matrix)
  average eigenvalue GAMMA=   0.9008
  2.5966  2.2905  1.6266  0.9253  0.8141  0.8141  0.6560  0.6158  0.4057  0.2818
  0.2818  0.2211  0.1807

 Free energy of the ion-electron system (eV)
  ---------------------------------------------------
  alpha Z        PSCENC =        20.47869267
  Ewald energy   TEWEN  =      -397.32884096
  -Hartree energ DENC   =      -270.87302527
  -exchange      EXHF   =         0.00000000
  -V(xc)+E(xc)   XCENC  =        48.14426709
  PAW double counting   =       443.54686497     -446.81609174
  entropy T*S    EENTRO =         0.00289899
  eigenvalues    EBANDS =      -105.70000608
  atomic energy  EATOM  =       696.90028792
  Solvation  Ediel_sol  =         0.00000000
  ---------------------------------------------------
  free energy    TOTEN  =       -11.64495243 eV

  energy without entropy =      -11.64785142  energy(sigma->0) =      -11.64591876


--------------------------------------------------------------------------------------------------------




--------------------------------------- Iteration      1(  19)  ---------------------------------------


    POTLOK:  cpu time    0.0145: real time    0.0164
    SETDIJ:  cpu time    0.0116: real time    0.0116
    EDDIAG:  cpu time    0.0064: real time    0.0064
  RMM-DIIS:  cpu time    0.0157: real time    0.0158
    ORTHCH:  cpu time    0.0008: real time    0.0008
       DOS:  cpu time    0.0001: real time    0.0001
    CHARGE:  cpu time    0.0108: real time    0.0109
    MIXING:  cpu time    0.0008: real time    0.0008
    --------------------------------------------
      LOOP:  cpu time    0.0607: real time    0.0629

 eigenvalue-minimisations  :   192
 total energy-change (2. order) :-0.5375449E-05  (-0.8912037E-05)
 number of electron      11.0000000 magnetization       0.5771504      0.5771370      0.5776298
 augmentation part        0.7448844 magnetization       0.1061525      0.1059897      0.1061386

 Broyden mixing:
  rms(total) = 0.58320E-03    rms(broyden)= 0.58281E-03
  rms(prec ) = 0.58852E-03
  weight for this iteration     100.00

 eigenvalues of (default mixing * dielectric matrix)
  average eigenvalue GAMMA=   0.8772
  2.6306  2.3261  1.6315  0.9847  0.8348  0.8348  0.6839  0.6120  0.4987  0.3262
  0.3262  0.2106  0.2106  0.1698

 Free energy of the ion-electron system (eV)
  ---------------------------------------------------
  alpha Z        PSCENC =        20.47869267
  Ewald energy   TEWEN  =      -397.32884096
  -Hartree energ DENC   =      -270.87239915
  -exchange      EXHF   =         0.00000000
  -V(xc)+E(xc)   XCENC  =        48.14422523
  PAW double counting   =       443.54262719     -446.81184304
  entropy T*S    EENTRO =         0.00289899
  eigenvalues    EBANDS =      -105.70060665
  atomic energy  EATOM  =       696.90028792
  Solvation  Ediel_sol  =         0.00000000
  ---------------------------------------------------
  free energy    TOTEN  =       -11.64495781 eV

  energy without entropy =      -11.64785679  energy(sigma->0) =      -11.64592414


--------------------------------------------------------------------------------------------------------




--------------------------------------- Iteration      1(  20)  ---------------------------------------


    POTLOK:  cpu time    0.0131: real time    0.0133
    SETDIJ:  cpu time    0.0113: real time    0.0114
    EDDIAG:  cpu time    0.0063: real time    0.0064
  RMM-DIIS:  cpu time    0.0153: real time    0.0154
    ORTHCH:  cpu time    0.0007: real time    0.0007
       DOS:  cpu time    0.0001: real time    0.0001
    CHARGE:  cpu time    0.0107: real time    0.0108
    MIXING:  cpu time    0.0008: real time    0.0008
    --------------------------------------------
      LOOP:  cpu time    0.0585: real time    0.0589

 eigenvalue-minimisations  :   192
 total energy-change (2. order) :-0.1550486E-05  (-0.3513118E-05)
 number of electron      11.0000000 magnetization       0.5771417      0.5771495      0.5776277
 augmentation part        0.7448846 magnetization       0.1060452      0.1060539      0.1061841

 Broyden mixing:
  rms(total) = 0.29863E-03    rms(broyden)= 0.29802E-03
  rms(prec ) = 0.30174E-03
  weight for this iteration     100.00

 eigenvalues of (default mixing * dielectric matrix)
  average eigenvalue GAMMA=   0.8574
  2.6646  2.3515  1.6371  1.0980  0.8732  0.8185  0.7167  0.6130  0.5830  0.3726
  0.2960  0.2747  0.2214  0.1861  0.1544

 Free energy of the ion-electron system (eV)
  ---------------------------------------------------
  alpha Z        PSCENC =        20.47869267
  Ewald energy   TEWEN  =      -397.32884096
  -Hartree energ DENC   =      -270.87207773
  -exchange      EXHF   =         0.00000000
  -V(xc)+E(xc)   XCENC  =        48.14421003
  PAW double counting   =       443.53949906     -446.80870956
  entropy T*S    EENTRO =         0.00289899
  eigenvalues    EBANDS =      -105.70091976
  atomic energy  EATOM  =       696.90028792
  Solvation  Ediel_sol  =         0.00000000
  ---------------------------------------------------
  free energy    TOTEN  =       -11.64495936 eV

  energy without entropy =      -11.64785834  energy(sigma->0) =      -11.64592569


--------------------------------------------------------------------------------------------------------




--------------------------------------- Iteration      1(  21)  ---------------------------------------


    POTLOK:  cpu time    0.0135: real time    0.0137
    SETDIJ:  cpu time    0.0122: real time    0.0123
    EDDIAG:  cpu time    0.0064: real time    0.0064
  RMM-DIIS:  cpu time    0.0157: real time    0.0158
    ORTHCH:  cpu time    0.0008: real time    0.0008
       DOS:  cpu time    0.0001: real time    0.0001
    CHARGE:  cpu time    0.0120: real time    0.0120
    MIXING:  cpu time    0.0009: real time    0.0009
    --------------------------------------------
      LOOP:  cpu time    0.0617: real time    0.0621

 eigenvalue-minimisations  :   192
 total energy-change (2. order) :-0.5278570E-05  (-0.1594626E-05)
 number of electron      11.0000000 magnetization       0.5771395      0.5771385      0.5776392
 augmentation part        0.7448842 magnetization       0.1060538      0.1061108      0.1061176

 Broyden mixing:
  rms(total) = 0.24245E-03    rms(broyden)= 0.24209E-03
  rms(prec ) = 0.24405E-03
  weight for this iteration     100.00

 eigenvalues of (default mixing * dielectric matrix)
  average eigenvalue GAMMA=   0.8392
  2.7006  2.3725  1.6487  1.2285  0.8928  0.8007  0.7660  0.6382  0.5982  0.4109
  0.3129  0.3129  0.2140  0.2140  0.1721  0.1447

 Free energy of the ion-electron system (eV)
  ---------------------------------------------------
  alpha Z        PSCENC =        20.47869267
  Ewald energy   TEWEN  =      -397.32884096
  -Hartree energ DENC   =      -270.87202311
  -exchange      EXHF   =         0.00000000
  -V(xc)+E(xc)   XCENC  =        48.14420361
  PAW double counting   =       443.53805495     -446.80726618
  entropy T*S    EENTRO =         0.00289899
  eigenvalues    EBANDS =      -105.70097252
  atomic energy  EATOM  =       696.90028792
  Solvation  Ediel_sol  =         0.00000000
  ---------------------------------------------------
  free energy    TOTEN  =       -11.64496464 eV

  energy without entropy =      -11.64786362  energy(sigma->0) =      -11.64593096


--------------------------------------------------------------------------------------------------------




--------------------------------------- Iteration      1(  22)  ---------------------------------------


    POTLOK:  cpu time    0.0135: real time    0.0137
    SETDIJ:  cpu time    0.0138: real time    0.0139
    EDDIAG:  cpu time    0.0069: real time    0.0070
  RMM-DIIS:  cpu time    0.0155: real time    0.0156
    ORTHCH:  cpu time    0.0008: real time    0.0008
       DOS:  cpu time    0.0001: real time    0.0001
    --------------------------------------------
      LOOP:  cpu time    0.0507: real time    0.0510

 eigenvalue-minimisations  :   192
 total energy-change (2. order) :-0.6537061E-06  (-0.9454584E-06)
 number of electron      11.0000000 magnetization       0.5771395      0.5771385      0.5776392
 augmentation part        0.7448842 magnetization       0.1060538      0.1061108      0.1061176

 Free energy of the ion-electron system (eV)
  ---------------------------------------------------
  alpha Z        PSCENC =        20.47869267
  Ewald energy   TEWEN  =      -397.32884096
  -Hartree energ DENC   =      -270.87205004
  -exchange      EXHF   =         0.00000000
  -V(xc)+E(xc)   XCENC  =        48.14420656
  PAW double counting   =       443.53742114     -446.80663499
  entropy T*S    EENTRO =         0.00289899
  eigenvalues    EBANDS =      -105.70094657
  atomic energy  EATOM  =       696.90028792
  Solvation  Ediel_sol  =         0.00000000
  ---------------------------------------------------
  free energy    TOTEN  =       -11.64496529 eV

  energy without entropy =      -11.64786428  energy(sigma->0) =      -11.64593162


--------------------------------------------------------------------------------------------------------




 average (electrostatic) potential at core
  the test charge radii are     0.7089  0.7215
  (the norm of the test charge is              1.0000)
       1 -70.6594       2 -77.5630
 
 
 
 E-fermi :   1.3890     XC(G=0):  -8.9518     alpha+bet : -6.7415


 k-point     1 :       0.2500    0.2500    0.0000
  band No.  band energies     occupation 
      1     -25.1102      1.00000
      2     -24.6141      1.00000
      3     -11.1136      1.00000
      4     -10.2897      1.00000
      5      -7.6644      1.00000
      6      -7.2967      1.00000
      7      -6.6348      1.00000
      8      -5.3001      1.00000
      9      -4.7280      1.00000
     10      -4.2541      1.00000
     11       1.3050      0.99960
     12       2.3482     -0.00000
     13       2.8786     -0.00000
     14       3.2923     -0.00000
     15      10.8224      0.00000
     16      11.3480      0.00000
     17      14.1787      0.00000
     18      14.5518      0.00000
     19      15.9223      0.00000
     20      16.3783      0.00000
     21      19.0783      0.00000
     22      19.3498      0.00000
     23      19.8354      0.00000
     24      20.6171      0.00000

 k-point     2 :      -0.2500    0.2500    0.0000
  band No.  band energies     occupation 
      1     -25.1105      1.00000
      2     -24.6139      1.00000
      3     -11.1132      1.00000
      4     -10.2904      1.00000
      5      -7.6610      1.00000
      6      -7.3000      1.00000
      7      -6.6345      1.00000
      8      -5.3002      1.00000
      9      -4.7324      1.00000
     10      -4.2496      1.00000
     11       1.3050      0.99962
     12       2.3488     -0.00000
     13       2.8779     -0.00000
     14       3.2923     -0.00000
     15      10.8226      0.00000
     16      11.3477      0.00000
     17      14.1776      0.00000
     18      14.5529      0.00000
     19      15.9225      0.00000
     20      16.3782      0.00000
     21      19.0791      0.00000
     22      19.3492      0.00000
     23      19.8349      0.00000
     24      20.6174      0.00000

 k-point     3 :       0.2500   -0.2500    0.0000
  band No.  band energies     occupation 
      1     -25.1102      1.00000
      2     -24.6141      1.00000
      3     -11.1136      1.00000
      4     -10.2897      1.00000
      5      -7.6656      1.00000
      6      -7.2961      1.00000
      7      -6.6338      1.00000
      8      -5.3001      1.00000
      9      -4.7274      1.00000
     10      -4.2550      1.00000
     11       1.3047      1.00038
     12       2.3482     -0.00000
     13       2.8786     -0.00000
     14       3.2927     -0.00000
     15      10.8224      0.00000
     16      11.3480      0.00000
     17      14.1817      0.00000
     18      14.5488      0.00000
     19      15.9186      0.00000
     20      16.3818      0.00000
     21      19.0770      0.00000
     22      19.3506      0.00000
     23      19.8365      0.00000
     24      20.6165      0.00000

 k-point     4 :      -0.2500   -0.2500    0.0000
  band No.  band energies     occupation 
      1     -25.1104      1.00000
      2     -24.6139      1.00000
      3     -11.1132      1.00000
      4     -10.2904      1.00000
      5      -7.6623      1.00000
      6      -7.2994      1.00000
      7      -6.6335      1.00000
      8      -5.3002      1.00000
      9      -4.7319      1.00000
     10      -4.2504      1.00000
     11       1.3046      1.00040
     12       2.3488     -0.00000
     13       2.8779     -0.00000
     14       3.2927     -0.00000
     15      10.8226      0.00000
     16      11.3477      0.00000
     17      14.1806      0.00000
     18      14.5499      0.00000
     19      15.9188      0.00000
     20      16.3818      0.00000
     21      19.0779      0.00000
     22      19.3500      0.00000
     23      19.8360      0.00000
     24      20.6167      0.00000


--------------------------------------------------------------------------------------------------------


 soft charge-density along one line, spin component           1
         0         1         2         3         4         5         6         7         8         9
 total charge-density along one line
 
 soft charge-density along one line, spin component           2
         0         1         2         3         4         5         6         7         8         9
 total charge-density along one line
 
 soft charge-density along one line, spin component           3
         0         1         2         3         4         5         6         7         8         9
 total charge-density along one line
 
 soft charge-density along one line, spin component           4
         0         1         2         3         4         5         6         7         8         9
 total charge-density along one line
 
 pseudopotential strength for first ion, spin component:           1
 13.613   0.000   0.061   0.000  -0.000   0.000   0.010   0.000   0.000   0.000  -0.000   0.000   0.021   0.000   0.000   0.000
  0.061   0.000   0.005   0.000  -0.000   0.000   0.001   0.000   0.000   0.000  -0.000   0.000   0.000   0.000   0.000   0.000
 -0.000   0.000  -0.000   0.000  -6.992   0.000   0.000   0.000  -0.000   0.006  -0.050   0.000   0.000   0.000  -0.000   0.002
  0.010   0.000   0.001   0.000   0.000   0.000  -7.020   0.000   0.000   0.000   0.000   0.000  -0.053   0.000   0.000   0.000
  0.000   0.000   0.000   0.000  -0.000  -0.006   0.000   0.000  -7.004   0.000  -0.000  -0.002   0.000   0.000  -0.046   0.000
 -0.000   0.000  -0.000   0.000  -0.050   0.000   0.000   0.000  -0.000   0.002   0.890   0.000   0.000   0.000  -0.000   0.001
  0.021   0.000   0.000   0.000   0.000   0.000  -0.053   0.000   0.000   0.000   0.000   0.000   0.891   0.000   0.000   0.000
  0.000   0.000   0.000   0.000  -0.000  -0.002   0.000   0.000  -0.046   0.000  -0.000  -0.001   0.000   0.000   0.890   0.000
 pseudopotential strength for first ion, spin component:           2
  0.079  -0.079   0.003  -0.003   0.000  -0.000  -0.001   0.001  -0.000   0.000   0.000  -0.000  -0.000   0.000   0.000   0.000
  0.003  -0.003   0.000  -0.000   0.000  -0.000  -0.000   0.000  -0.000   0.000   0.000  -0.000  -0.000   0.000  -0.000   0.000
  0.000  -0.000   0.000  -0.000  -0.094   0.094   0.000  -0.006  -0.000  -0.000  -0.024   0.024   0.000  -0.002  -0.000  -0.000
 -0.001   0.001  -0.000   0.000   0.000   0.006  -0.013   0.013  -0.006   0.000   0.000   0.002  -0.002   0.002  -0.002   0.000
 -0.000   0.000  -0.000   0.000  -0.000  -0.000   0.006   0.000  -0.017   0.017  -0.000  -0.000   0.002   0.000  -0.003   0.003
  0.000  -0.000   0.000  -0.000  -0.024   0.024   0.000  -0.002  -0.000  -0.000  -0.004   0.004   0.000  -0.001  -0.000  -0.000
 -0.000   0.000  -0.000   0.000   0.000   0.002  -0.002   0.002  -0.002   0.000   0.000   0.001  -0.001   0.001  -0.001   0.000
  0.000   0.000  -0.000   0.000  -0.000  -0.000   0.002   0.000  -0.003   0.003  -0.000  -0.000   0.001   0.000  -0.001   0.001
 pseudopotential strength for first ion, spin component:           3
  0.079   0.079   0.003   0.003   0.000   0.000  -0.001  -0.001  -0.000  -0.000   0.000   0.000  -0.000  -0.000   0.000  -0.000
  0.003   0.003   0.000   0.000   0.000   0.000  -0.000  -0.000  -0.000  -0.000   0.000   0.000  -0.000  -0.000  -0.000  -0.000
  0.000   0.000   0.000   0.000  -0.094  -0.094   0.000  -0.006  -0.000   0.000  -0.024  -0.024   0.000  -0.002  -0.000   0.000
 -0.001  -0.001  -0.000  -0.000   0.000   0.006  -0.013  -0.013   0.006  -0.000   0.000   0.002  -0.002  -0.002   0.002  -0.000
 -0.000  -0.000  -0.000  -0.000  -0.000   0.000  -0.006  -0.000  -0.017  -0.017  -0.000   0.000  -0.002  -0.000  -0.003  -0.003
  0.000   0.000   0.000   0.000  -0.024  -0.024   0.000  -0.002  -0.000   0.000  -0.004  -0.004   0.000  -0.001  -0.000   0.000
 -0.000  -0.000  -0.000  -0.000   0.000   0.002  -0.002  -0.002   0.002  -0.000   0.000   0.001  -0.001  -0.001   0.001  -0.000
  0.000  -0.000  -0.000  -0.000  -0.000   0.000  -0.002  -0.000  -0.003  -0.003  -0.000   0.000  -0.001  -0.000  -0.001  -0.001
 pseudopotential strength for first ion, spin component:           4
 13.454   0.000   0.054   0.000   0.000   0.000   0.012   0.000  -0.000   0.000   0.000   0.000   0.021   0.000  -0.000   0.000
  0.054   0.000   0.004   0.000   0.000   0.000   0.001   0.000  -0.000   0.000   0.000   0.000   0.000   0.000  -0.000   0.000
  0.000   0.000   0.000   0.000  -6.804   0.000  -0.000   0.000   0.000  -0.006  -0.001   0.000  -0.000   0.000   0.000  -0.002
  0.012   0.000   0.001   0.000  -0.000   0.000  -6.994   0.000  -0.000   0.000  -0.000   0.000  -0.050   0.000  -0.000   0.000
 -0.000   0.000  -0.000   0.000   0.000   0.006  -0.000   0.000  -6.970   0.000   0.000   0.002  -0.000   0.000  -0.040   0.000
  0.000   0.000   0.000   0.000  -0.001   0.000  -0.000   0.000   0.000  -0.002   0.899   0.000  -0.000   0.000  -0.000  -0.001
  0.021   0.000   0.000   0.000  -0.000   0.000  -0.050   0.000  -0.000   0.000  -0.000   0.000   0.893   0.000  -0.000   0.000
 -0.000   0.000  -0.000   0.000   0.000   0.002  -0.000   0.000  -0.040   0.000  -0.000   0.001  -0.000   0.000   0.893   0.000
 total augmentation occupancy for first ion, spin component:           1
  1.882  -0.279  -0.000   0.169  -0.000  -0.000   0.091  -0.000
 -0.279   0.747  -0.000   0.673  -0.000  -0.000  -0.333  -0.000
 -0.000  -0.000   1.439   0.000  -0.000  -0.073  -0.000  -0.000
  0.169   0.673   0.000   1.337   0.000   0.000  -0.377   0.000
 -0.000  -0.000  -0.000   0.000   0.807  -0.000  -0.000  -0.161
 -0.000  -0.000  -0.073   0.000  -0.000   0.038  -0.000  -0.000
  0.091  -0.333  -0.000  -0.377  -0.000  -0.000   0.174  -0.000
 -0.000  -0.000  -0.000   0.000  -0.161  -0.000  -0.000   0.039
 total augmentation occupancy for first ion, spin component:           2
  0.016   0.026   0.000   0.001   0.000   0.000  -0.002   0.000
  0.026  -0.004   0.000   0.001   0.000  -0.000   0.002   0.000
  0.000   0.000   0.429  -0.000   0.004   0.047  -0.000   0.001
  0.001   0.001  -0.000   0.003   0.000  -0.000   0.000   0.000
  0.000   0.000   0.004   0.000   0.010   0.000  -0.000   0.000
  0.000  -0.000   0.047  -0.000   0.000   0.002   0.000   0.000
 -0.002   0.002  -0.000   0.000  -0.000   0.000  -0.000  -0.000
  0.000   0.000   0.001   0.000   0.000   0.000  -0.000  -0.000
 total augmentation occupancy for first ion, spin component:           3
  0.016   0.026  -0.000   0.002  -0.000  -0.000  -0.002  -0.000
  0.026  -0.004  -0.000   0.001  -0.000   0.000   0.002   0.000
 -0.000  -0.000   0.429   0.000  -0.004   0.047  -0.000  -0.001
  0.002   0.001   0.000   0.003  -0.000   0.000   0.000  -0.000
 -0.000  -0.000  -0.004  -0.000   0.010  -0.000   0.000   0.000
 -0.000   0.000   0.047   0.000  -0.000   0.002  -0.000  -0.000
 -0.002   0.002  -0.000   0.000   0.000  -0.000  -0.000  -0.000
 -0.000   0.000  -0.001  -0.000   0.000  -0.000  -0.000  -0.000
 total augmentation occupancy for first ion, spin component:           4
  0.016   0.026   0.000   0.001  -0.000   0.000  -0.002  -0.000
  0.026  -0.004   0.000   0.001   0.000  -0.000   0.002  -0.000
  0.000   0.000   0.429  -0.000   0.000   0.047   0.000  -0.000
  0.001   0.001  -0.000   0.003  -0.000  -0.000   0.000  -0.000
 -0.000   0.000   0.000  -0.000   0.010  -0.000  -0.000   0.000
  0.000  -0.000   0.047  -0.000  -0.000   0.002   0.000   0.000
 -0.002   0.002   0.000   0.000  -0.000   0.000  -0.000   0.000
 -0.000  -0.000  -0.000  -0.000   0.000   0.000   0.000  -0.000


------------------------ aborting loop because EDIFF is reached ----------------------------------------


    CHARGE:  cpu time    0.0114: real time    0.0114
    FORLOC:  cpu time    0.0003: real time    0.0003
    FORNL :  cpu time    0.0633: real time    0.0636
    STRESS:  cpu time    0.2030: real time    0.2043
    FORHAR:  cpu time    0.0014: real time    0.0014
    MIXING:  cpu time    0.0010: real time    0.0010
    OFIELD:  cpu time    0.0000: real time    0.0000

  FORCE on cell =-STRESS in cart. coord.  units (eV):
  Direction    XX          YY          ZZ          XY          YZ          ZX
  --------------------------------------------------------------------------------------
  Alpha Z    20.47869    20.47869    20.47869
  Ewald     -16.14170  -314.19436   -66.99295    -0.00000     0.00000    -0.00000
  Hartree   185.47071    19.98630    65.41519     0.00000     0.00001     0.00000
  E(xc)     -50.46150   -51.19976   -49.97128     0.00000     0.00000     0.00000
  Local    -335.87182   101.67456  -145.25073    -0.00002    -0.00003    -0.00001
  n-local   -26.74109   -33.73073   -36.65128    -0.00000     0.00001    -0.00001
  augment     6.25492     8.11861     6.09479     0.00000     0.00000     0.00000
  Kinetic   224.26907   249.26747   204.29817     0.00001     0.00003     0.00002
  Fock        0.00000     0.00000     0.00000     0.00000     0.00000     0.00000
  -------------------------------------------------------------------------------------
  Total       7.25728     0.40078    -2.57941    -0.00001     0.00002    -0.00000
  in kB     484.47718    26.75479  -172.19468    -0.00061     0.00132    -0.00010
  external pressure =      113.01 kB  Pullay stress =        0.00 kB


 VOLUME and BASIS-vectors are now :
 -----------------------------------------------------------------------------
  energy-cutoff  :      600.00
  volume of cell :       24.00
      direct lattice vectors                 reciprocal lattice vectors
     2.000000000  0.000000000  0.000000000     0.500000000  0.000000000  0.000000000
     0.000000000  3.000000000  0.000000000     0.000000000  0.333333333  0.000000000
     0.000000000  0.000000000  4.000000000     0.000000000  0.000000000  0.250000000

  length of vectors
     2.000000000  3.000000000  4.000000000     0.500000000  0.333333333  0.250000000


 FORCES acting on ions
    electron-ion (+dipol)            ewald-force                    non-local-force                 convergence-correction
 -----------------------------------------------------------------------------------------------
   0.242E-05 0.150E-04 -.273E+03   -.187E-14 -.487E-15 0.311E+03   0.399E-05 0.203E-05 -.380E+02   -.160E-05 -.419E-05 0.487E-04
   -.149E-04 -.210E-04 0.254E+03   0.182E-14 0.641E-15 -.311E+03   0.941E-05 0.127E-04 0.567E+02   -.429E-06 -.356E-05 0.243E-04
 -----------------------------------------------------------------------------------------------
   -.125E-04 -.593E-05 -.186E+02   -.463E-16 0.153E-15 0.000E+00   0.134E-04 0.147E-04 0.186E+02   -.203E-05 -.775E-05 0.731E-04
 
 
 POSITION                                       TOTAL-FORCE (eV/Angst)
 -----------------------------------------------------------------------------------
      1.00000      1.50000      2.23868         0.000005      0.000012      0.005634
      1.00000      1.50000      1.05082        -0.000005     -0.000012     -0.005634
 -----------------------------------------------------------------------------------
    total drift:                               -0.000001      0.000001      0.004795


--------------------------------------------------------------------------------------------------------



  FREE ENERGIE OF THE ION-ELECTRON SYSTEM (eV)
  ---------------------------------------------------
  free  energy   TOTEN  =       -11.64496529 eV

  energy  without entropy=      -11.64786428  energy(sigma->0) =      -11.64593162
 


--------------------------------------------------------------------------------------------------------


    POTLOK:  cpu time    0.0250: real time    0.0251


--------------------------------------------------------------------------------------------------------




--------------------------------------------------------------------------------------------------------


  
 reached required accuracy - stopping structural energy minimisation
     LOOP+:  cpu time    1.7424: real time    2.2694
    4ORBIT:  cpu time    0.0000: real time    0.0000

 Spin-Orbit-Coupling matrix elements

 Ion:    1  E_soc:     -0.0001359
 l=   1
     0.0000000    -0.0000107    -0.0000423
    -0.0000107     0.0000000    -0.0000149
    -0.0000423    -0.0000149     0.0000000
 l=   2
     0.0000000     0.0000000     0.0000000     0.0000000     0.0000000
     0.0000000     0.0000000     0.0000000     0.0000000     0.0000000
     0.0000000     0.0000000     0.0000000     0.0000000     0.0000000
     0.0000000     0.0000000     0.0000000     0.0000000     0.0000000
     0.0000000     0.0000000     0.0000000     0.0000000     0.0000000
 l=   3
     0.0000000     0.0000000     0.0000000     0.0000000     0.0000000     0.0000000     0.0000000
     0.0000000     0.0000000     0.0000000     0.0000000     0.0000000     0.0000000     0.0000000
     0.0000000     0.0000000     0.0000000     0.0000000     0.0000000     0.0000000     0.0000000
     0.0000000     0.0000000     0.0000000     0.0000000     0.0000000     0.0000000     0.0000000
     0.0000000     0.0000000     0.0000000     0.0000000     0.0000000     0.0000000     0.0000000
     0.0000000     0.0000000     0.0000000     0.0000000     0.0000000     0.0000000     0.0000000
     0.0000000     0.0000000     0.0000000     0.0000000     0.0000000     0.0000000     0.0000000

 Ion:    2  E_soc:     -0.0002662
 l=   1
     0.0000000    -0.0000279    -0.0000726
    -0.0000279     0.0000000    -0.0000326
    -0.0000726    -0.0000326     0.0000000
 l=   2
     0.0000000     0.0000000     0.0000000     0.0000000     0.0000000
     0.0000000     0.0000000     0.0000000     0.0000000     0.0000000
     0.0000000     0.0000000     0.0000000     0.0000000     0.0000000
     0.0000000     0.0000000     0.0000000     0.0000000     0.0000000
     0.0000000     0.0000000     0.0000000     0.0000000     0.0000000
 l=   3
     0.0000000     0.0000000     0.0000000     0.0000000     0.0000000     0.0000000     0.0000000
     0.0000000     0.0000000     0.0000000     0.0000000     0.0000000     0.0000000     0.0000000
     0.0000000     0.0000000     0.0000000     0.0000000     0.0000000     0.0000000     0.0000000
     0.0000000     0.0000000     0.0000000     0.0000000     0.0000000     0.0000000     0.0000000
     0.0000000     0.0000000     0.0000000     0.0000000     0.0000000     0.0000000     0.0000000
     0.0000000     0.0000000     0.0000000     0.0000000     0.0000000     0.0000000     0.0000000
     0.0000000     0.0000000     0.0000000     0.0000000     0.0000000     0.0000000     0.0000000

 total amount of memory used by VASP MPI-rank0    37494. kBytes
=======================================================================

   base      :      30000. kBytes
   nonlr-proj:        764. kBytes
   fftplans  :       2711. kBytes
   grid      :       3784. kBytes
   one-center:         24. kBytes
   wavefun   :        211. kBytes
 
  
  
 General timing and accounting informations for this job:
 ========================================================
  
                  Total CPU time used (sec):        3.443
                            User time (sec):        3.048
                          System time (sec):        0.394
                         Elapsed time (sec):        5.256
  
                   Maximum memory used (kb):      291392.
                   Average memory used (kb):           0.
  
                          Minor page faults:        75807
                          Major page faults:           60
                 Voluntary context switches:         3679
