Graphite surface slap                   
   1.00000000000000     
     2.441046    0.000000    0.000000
    -1.220523    2.114008    0.000000
     0.000000    0.000000   10.000000
   C 
     2
Direct
  0.000000  0.000000  0.000000
  0.333333  0.666667  0.000000
 
   24   24  100
  4.3577      26.782      71.593      101.68      105.43      94.188      80.749      69.844      60.954      53.829    
  48.657      45.607      44.609      45.607      48.657      53.829      60.953      69.844      80.749      94.188    
  105.43      101.68      71.593      26.782      26.782      26.782      58.568      90.903      101.03      91.960    
  76.883      63.866      53.829      45.932      40.033      36.198      34.342      34.342      36.198      40.033    
  45.932      53.829      63.866      76.883      91.960      101.03      90.903      58.568      71.593      60.962    
  71.593      90.903      98.724      90.411      74.632      59.899      48.657      40.033      33.595      29.182    
  26.672      25.864      26.672      29.182      33.595      40.033      48.657      59.899      74.632      90.411    
  98.724      90.903      101.68      97.443      97.443      101.68      101.03      90.411      73.886      57.985    
  45.607      36.198      29.182      24.239      21.181      19.739      19.739      21.181      24.239      29.182    
  36.198      45.608      57.984      73.886      90.411      101.03      105.43      112.47      114.32      112.47    
  105.43      91.960      74.632      57.984      44.609      34.342      26.672      21.181      17.598      15.609    
  14.975      15.609      17.598      21.181      26.673      34.342      44.609      57.984      74.632      91.960    
  94.188      108.08      115.62      115.62      108.08      94.188      76.883      59.899      45.607      34.342    
  25.864      19.739      15.609      13.103      11.927      11.927      13.103      15.609      19.739      25.864    
  34.342      45.608      59.899      76.883      80.749      96.759      108.35      112.58      108.35      96.759    
  80.749      63.865      48.657      36.198      26.672      19.739      14.975      11.927      10.237      9.6963    
  10.237      11.927      14.975      19.739      26.673      36.198      48.657      63.866      69.844      86.199    
  99.985      107.96      107.96      99.985      86.199      69.844      53.829      40.033      29.182      21.181    
  15.609      11.927      9.6963      8.6433      8.6432      9.6964      11.927      15.609      21.181      29.182    
  40.033      53.829      60.953      77.383      92.756      103.87      107.94      103.87      92.756      77.383    
  60.953      45.932      33.595      24.239      17.598      13.103      10.237      8.6432      8.1312      8.6432    
  10.237      13.103      17.598      24.239      33.595      45.932      53.829      69.844      86.199      99.985    
  107.96      107.96      99.985      86.199      69.844      53.829      40.033      29.182      21.181      15.609    
  11.927      9.6964      8.6432      8.6433      9.6963      11.927      15.609      21.181      29.182      40.033    
  48.657      63.865      80.749      96.759      108.35      112.58      108.35      96.759      80.749      63.866    
  48.657      36.198      26.673      19.739      14.975      11.927      10.237      9.6963      10.237      11.927    
  14.975      19.739      26.672      36.198      45.607      59.899      76.883      94.188      108.08      115.62    
  115.62      108.08      94.188      76.883      59.899      45.608      34.342      25.864      19.739      15.609    
  13.103      11.927      11.927      13.103      15.609      19.739      25.864      34.342      44.609      57.984    
  74.632      91.960      105.43      112.47      114.32      112.47      105.43      91.960      74.632      57.984    
  44.609      34.342      26.673      21.181      17.598      15.609      14.975      15.609      17.598      21.181    
  26.672      34.342      45.607      57.985      73.886      90.411      101.03      101.68      97.443      97.443    
  101.68      101.03      90.411      73.886      57.984      45.608      36.198      29.182      24.239      21.181    
  19.739      19.739      21.181      24.239      29.182      36.198      48.657      59.899      74.632      90.411    
  98.724      90.903      71.593      60.962      71.593      90.903      98.724      90.411      74.632      59.899    
  48.657      40.033      33.595      29.182      26.672      25.864      26.672      29.182      33.595      40.033    
  53.829      63.866      76.883      91.960      101.03      90.903      58.568      26.782      26.782      58.568    
  90.903      101.03      91.960      76.883      63.866      53.829      45.932      40.033      36.198      34.342    
  34.342      36.198      40.033      45.932      60.954      69.844      80.749      94.188      105.43      101.68    
  71.593      26.782      4.3577      26.782      71.593      101.68      105.43      94.188      80.749      69.844    
  60.953      53.829      48.657      45.607      44.609      45.607      48.657      53.829      69.844      77.383    
  86.199      96.758      108.08      112.47      97.443      60.962      26.782      26.782      60.962      97.443    
  112.47      108.08      96.759      86.199      77.383      69.844      63.865      59.899      57.984      57.985    
  59.899      63.866      80.749      86.199      92.755      99.986      108.35      115.62      114.32      97.443    
  71.593      58.568      71.593      97.443      114.32      115.62      108.35      99.985      92.756      86.199    
  80.749      76.883      74.632      73.886      74.632      76.883      94.188      96.758      99.986      103.87    
  107.96      112.58      115.62      112.47      101.68      90.903      90.903      101.68      112.47      115.62    
  112.58      107.96      103.87      99.985      96.759      94.188      91.960      90.411      90.411      91.960    
  105.43      108.08      108.35      107.96      107.94      107.96      108.35      108.08      105.43      101.03    
  98.724      101.03      105.43      108.08      108.35      107.96      107.94      107.96      108.35      108.08    
  105.43      101.03      98.724      101.03      101.68      112.47      115.62      112.58      107.96      103.87    
  99.986      96.758      94.188      91.960      90.411      90.411      91.960      94.188      96.759      99.985    
  103.87      107.96      112.58      115.62      112.47      101.68      90.903      90.903      71.593      97.443    
  114.32      115.62      108.35      99.986      92.755      86.199      80.749      76.883      74.632      73.886    
  74.632      76.883      80.749      86.199      92.756      99.985      108.35      115.62      114.32      97.443    
  71.593      58.568      26.782      60.962      97.443      112.47      108.08      96.758      86.199      77.383    
  69.844      63.866      59.899      57.985      57.984      59.899      63.865      69.844      77.383      86.199    
  96.759      108.08      112.47      97.443      60.962      26.782      21.096      39.854      77.037      101.14    
  102.52      91.175      78.303      67.859      59.286      52.413      47.431      44.496      43.535      44.496    
  47.431      52.413      59.286      67.859      78.302      91.175      102.52      101.14      77.037      39.854    
  39.854      39.854      66.137      92.207      98.895      89.141      74.549      62.098      52.413      44.776    
  39.073      35.372      33.581      33.581      35.372      39.073      44.776      52.413      62.098      74.549    
  89.141      98.895      92.207      66.137      77.037      68.433      77.037      92.207      96.984      87.773    
  72.374      58.265      47.431      39.073      32.825      28.550      26.119      25.336      26.119      28.550    
  32.825      39.073      47.431      58.265      72.374      87.773      96.984      92.207      101.14      98.479    
  98.479      101.14      98.895      87.773      71.657      56.410      44.496      35.372      28.550      23.743    
  20.770      19.368      19.368      20.770      23.743      28.550      35.372      44.497      56.409      71.657    
  87.773      98.895      102.52      109.87      111.94      109.87      102.52      89.141      72.373      56.409    
  43.535      33.581      26.119      20.770      17.279      15.339      14.720      15.339      17.279      20.770    
  26.119      33.581      43.535      56.409      72.374      89.141      91.175      104.61      111.96      111.96    
  104.61      91.175      74.549      58.265      44.496      33.581      25.336      19.368      15.339      12.892    
  11.741      11.742      12.892      15.339      19.368      25.336      33.581      44.497      58.265      74.549    
  78.302      93.646      104.76      108.82      104.76      93.646      78.303      62.098      47.431      35.372    
  26.119      19.368      14.720      11.741      10.087      9.5569      10.087      11.741      14.720      19.368    
  26.120      35.372      47.431      62.098      67.859      83.590      96.816      104.46      104.46      96.816    
  83.590      67.859      52.413      39.073      28.550      20.770      15.339      11.742      9.5569      8.5242    
  8.5241      9.5569      11.741      15.339      20.770      28.550      39.073      52.413      59.286      75.119    
  89.903      100.58      104.49      100.58      89.903      75.119      59.286      44.776      32.825      23.743    
  17.279      12.892      10.087      8.5241      8.0216      8.5241      10.087      12.892      17.279      23.743    
  32.825      44.776      52.413      67.859      83.590      96.816      104.46      104.46      96.816      83.590    
  67.859      52.413      39.073      28.550      20.770      15.339      11.741      9.5569      8.5241      8.5241    
  9.5569      11.741      15.339      20.770      28.550      39.073      47.431      62.098      78.303      93.646    
  104.76      108.82      104.76      93.646      78.302      62.098      47.431      35.372      26.119      19.368    
  14.720      11.741      10.087      9.5569      10.087      11.741      14.720      19.368      26.119      35.372    
  44.496      58.265      74.549      91.175      104.61      111.96      111.96      104.61      91.175      74.549    
  58.265      44.497      33.581      25.336      19.368      15.339      12.892      11.741      11.741      12.892    
  15.339      19.368      25.336      33.581      43.535      56.409      72.373      89.141      102.52      109.87    
  111.94      109.87      102.52      89.141      72.374      56.409      43.535      33.581      26.120      20.770    
  17.279      15.339      14.720      15.339      17.279      20.770      26.119      33.581      44.496      56.410    
  71.657      87.773      98.895      101.14      98.479      98.479      101.14      98.895      87.773      71.657    
  56.409      44.497      35.372      28.550      23.743      20.770      19.368      19.368      20.770      23.743    
  28.550      35.372      47.431      58.265      72.374      87.773      96.984      92.207      77.037      68.433    
  77.037      92.207      96.984      87.773      72.374      58.265      47.431      39.073      32.825      28.550    
  26.119      25.336      26.119      28.550      32.825      39.073      52.413      62.098      74.549      89.141    
  98.895      92.207      66.137      39.854      39.854      66.137      92.207      98.895      89.141      74.549    
  62.098      52.413      44.776      39.073      35.372      33.581      33.581      35.372      39.073      44.776    
  59.286      67.859      78.303      91.175      102.52      101.14      77.037      39.854      21.096      39.854    
  77.037      101.14      102.52      91.175      78.302      67.859      59.286      52.413      47.431      44.496    
  43.535      44.496      47.431      52.413      67.859      75.119      83.591      93.645      104.61      109.87    
  98.480      68.433      39.854      39.854      68.433      98.479      109.87      104.61      93.646      83.590    
  75.119      67.859      62.098      58.265      56.409      56.410      58.265      62.098      78.303      83.591    
  89.903      96.817      104.76      111.96      111.94      98.480      77.037      66.137      77.037      98.479    
  111.94      111.96      104.76      96.816      89.903      83.590      78.303      74.549      72.373      71.657    
  72.374      74.549      91.175      93.645      96.817      100.58      104.46      108.82      111.96      109.87    
  101.14      92.207      92.207      101.14      109.87      111.96      108.82      104.46      100.58      96.816    
  93.646      91.175      89.141      87.773      87.773      89.141      102.52      104.61      104.76      104.46    
  104.49      104.46      104.76      104.61      102.52      98.895      96.984      98.895      102.52      104.61    
  104.76      104.46      104.49      104.46      104.76      104.61      102.52      98.895      96.984      98.895    
  101.14      109.87      111.96      108.82      104.46      100.58      96.817      93.645      91.175      89.141    
  87.773      87.773      89.141      91.175      93.646      96.816      100.58      104.46      108.82      111.96    
  109.87      101.14      92.207      92.207      77.037      98.480      111.94      111.96      104.76      96.817    
  89.903      83.591      78.303      74.549      72.374      71.657      72.373      74.549      78.303      83.590    
  89.903      96.816      104.76      111.96      111.94      98.479      77.037      66.137      39.854      68.433    
  98.480      109.87      104.61      93.645      83.591      75.119      67.859      62.098      58.265      56.410    
  56.409      58.265      62.098      67.859      75.119      83.590      93.646      104.61      109.87      98.479    
  68.433      39.854      54.509      65.319      86.011      97.346      93.926      82.836      71.555      62.318    
  54.617      48.440      43.987      41.368      40.511      41.368      43.987      48.440      54.617      62.318    
  71.555      82.836      93.926      97.346      86.011      65.319      65.319      65.318      79.724      92.382    
  91.973      81.210      68.121      57.179      48.440      41.518      36.361      33.031      31.421      31.421    
  33.031      36.361      41.518      48.440      57.179      68.121      81.210      91.973      92.382      79.724    
  86.011      81.751      86.011      92.382      90.901      80.224      66.142      53.736      43.987      36.361    
  30.644      26.753      24.543      23.830      24.543      26.753      30.644      36.361      43.987      53.736    
  66.142      80.224      90.901      92.382      97.346      97.922      97.922      97.345      91.973      80.224    
  65.498      52.054      41.368      33.031      26.753      22.332      19.597      18.305      18.305      19.597    
  22.332      26.753      33.031      41.368      52.053      65.498      80.224      91.973      93.926      101.67    
  104.12      101.67      93.926      81.210      66.142      52.053      40.511      31.421      24.543      19.597    
  16.366      14.565      13.989      14.565      16.366      19.597      24.543      31.421      40.511      52.053    
  66.142      81.210      82.836      94.904      101.62      101.62      94.904      82.836      68.121      53.736    
  41.368      31.421      23.830      18.305      14.565      12.282      11.205      11.205      12.282      14.565    
  18.305      23.830      31.421      41.369      53.736      68.121      71.555      85.078      94.870      98.454    
  94.870      85.078      71.555      57.179      43.987      33.031      24.543      18.305      13.989      11.205    
  9.6514      9.1522      9.6514      11.205      13.989      18.305      24.543      33.031      43.987      57.179    
  62.318      76.356      88.069      94.811      94.811      88.069      76.356      62.318      48.440      36.361    
  26.753      19.597      14.565      11.205      9.1522      8.1776      8.1776      9.1522      11.205      14.565    
  19.597      26.753      36.361      48.440      54.617      68.807      81.982      91.460      94.927      91.460    
  81.982      68.807      54.617      41.518      30.644      22.332      16.366      12.282      9.6514      8.1776    
  7.7024      8.1776      9.6513      12.282      16.366      22.332      30.644      41.518      48.440      62.318    
  76.356      88.069      94.811      94.811      88.069      76.356      62.318      48.440      36.361      26.753    
  19.597      14.565      11.205      9.1522      8.1776      8.1776      9.1522      11.205      14.565      19.597    
  26.753      36.361      43.987      57.179      71.555      85.078      94.870      98.454      94.870      85.078    
  71.555      57.179      43.987      33.031      24.543      18.305      13.989      11.205      9.6513      9.1522    
  9.6513      11.205      13.989      18.305      24.543      33.031      41.368      53.736      68.121      82.836    
  94.904      101.62      101.62      94.904      82.836      68.121      53.736      41.368      31.421      23.830    
  18.305      14.565      12.282      11.205      11.205      12.282      14.565      18.305      23.830      31.421    
  40.511      52.053      66.142      81.210      93.926      101.67      104.12      101.67      93.926      81.210    
  66.142      52.053      40.511      31.421      24.543      19.597      16.366      14.565      13.989      14.565    
  16.366      19.597      24.543      31.421      41.368      52.054      65.497      80.224      91.973      97.346    
  97.922      97.922      97.346      91.973      80.224      65.498      52.053      41.369      33.031      26.753    
  22.332      19.597      18.305      18.305      19.597      22.332      26.753      33.031      43.987      53.736    
  66.142      80.224      90.901      92.382      86.011      81.751      86.011      92.382      90.901      80.224    
  66.142      53.736      43.987      36.361      30.644      26.753      24.543      23.830      24.543      26.753    
  30.644      36.361      48.440      57.179      68.121      81.210      91.973      92.382      79.724      65.318    
  65.319      79.724      92.382      91.973      81.210      68.121      57.179      48.440      41.518      36.361    
  33.031      31.421      31.421      33.031      36.361      41.518      54.617      62.318      71.555      82.836    
  93.926      97.346      86.011      65.319      54.509      65.319      86.011      97.346      93.926      82.836    
  71.555      62.318      54.617      48.440      43.987      41.368      40.511      41.368      43.987      48.440    
  62.318      68.807      76.356      85.078      94.904      101.67      97.922      81.751      65.319      65.318    
  81.751      97.922      101.67      94.904      85.078      76.356      68.807      62.318      57.179      53.736    
  52.053      52.054      53.736      57.179      71.555      76.356      81.982      88.069      94.870      101.62    
  104.12      97.922      86.011      79.724      86.011      97.922      104.12      101.62      94.870      88.069    
  81.982      76.356      71.555      68.121      66.142      65.497      66.142      68.121      82.836      85.078    
  88.069      91.460      94.811      98.454      101.62      101.67      97.346      92.382      92.382      97.345    
  101.67      101.62      98.454      94.811      91.460      88.069      85.078      82.836      81.210      80.224    
  80.224      81.210      93.926      94.904      94.870      94.811      94.927      94.811      94.870      94.904    
  93.926      91.973      90.901      91.973      93.926      94.904      94.870      94.811      94.927      94.811    
  94.870      94.904      93.926      91.973      90.901      91.973      97.346      101.67      101.62      98.454    
  94.811      91.460      88.069      85.078      82.836      81.210      80.224      80.224      81.210      82.836    
  85.078      88.069      91.460      94.811      98.454      101.62      101.67      97.346      92.382      92.382    
  86.011      97.922      104.12      101.62      94.870      88.069      81.982      76.356      71.555      68.121    
  66.142      65.498      66.142      68.121      71.555      76.356      81.982      88.069      94.870      101.62    
  104.12      97.922      86.011      79.724      65.319      81.751      97.922      101.67      94.904      85.078    
  76.356      68.807      62.318      57.179      53.736      52.054      52.053      53.736      57.179      62.318    
  68.807      76.356      85.078      94.904      101.67      97.922      81.751      65.318      76.205      80.110    
  86.611      87.381      80.792      71.049      61.985      54.299      47.815      42.629      38.930      36.758    
  36.046      36.758      38.930      42.629      47.815      54.299      61.985      71.049      80.792      87.381    
  86.611      80.110      80.110      80.110      84.335      85.813      80.179      69.768      59.059      50.060    
  42.629      36.721      32.351      29.545      28.188      28.188      29.545      32.351      36.721      42.629    
  50.059      59.059      69.768      80.179      85.813      84.335      86.611      85.989      86.611      85.813    
  79.804      69.092      57.352      47.224      38.930      32.351      27.406      24.064      22.166      21.553    
  22.166      24.064      27.406      32.351      38.930      47.224      57.352      69.092      79.804      85.813    
  87.381      90.334      90.334      87.381      80.179      69.092      56.796      45.819      36.758      29.545    
  24.064      20.213      17.824      16.691      16.691      17.824      20.213      24.063      29.545      36.758    
  45.819      56.796      69.092      80.179      80.792      88.104      90.601      88.104      80.792      69.768    
  57.352      45.819      36.046      28.188      22.166      17.824      14.976      13.380      12.867      13.380    
  14.976      17.824      22.166      28.188      36.046      45.819      57.352      69.768      71.050      80.987    
  86.611      86.611      80.987      71.050      59.059      47.224      36.758      28.188      21.553      16.691    
  13.380      11.342      10.375      10.375      11.342      13.379      16.691      21.553      28.188      36.758    
  47.224      59.059      61.985      73.021      80.971      83.880      80.971      73.021      61.985      50.060    
  38.930      29.545      22.166      16.691      12.867      10.375      8.9724      8.5201      8.9724      10.375    
  12.867      16.691      22.166      29.545      38.930      50.060      54.299      65.981      75.644      81.164    
  81.164      75.644      65.981      54.299      42.629      32.351      24.064      17.824      13.380      10.375    
  8.5201      7.6340      7.6341      8.5200      10.375      13.379      17.824      24.064      32.350      42.629    
  47.815      59.697      70.630      78.446      81.296      78.446      70.630      59.698      47.815      36.721    
  27.406      20.213      14.976      11.342      8.9724      7.6341      7.2007      7.6341      8.9724      11.342    
  14.976      20.213      27.406      36.721      42.629      54.299      65.981      75.644      81.164      81.164    
  75.644      65.981      54.299      42.629      32.351      24.063      17.824      13.379      10.375      8.5200    
  7.6341      7.6340      8.5201      10.375      13.380      17.824      24.064      32.351      38.930      50.060    
  61.985      73.021      80.971      83.880      80.971      73.021      61.985      50.059      38.930      29.545    
  22.166      16.691      12.867      10.375      8.9724      8.5201      8.9725      10.375      12.867      16.691    
  22.166      29.545      36.758      47.224      59.059      71.050      80.987      86.611      86.611      80.987    
  71.049      59.059      47.224      36.758      28.188      21.553      16.691      13.379      11.342      10.375    
  10.375      11.342      13.380      16.691      21.553      28.188      36.046      45.819      57.352      69.768    
  80.792      88.104      90.601      88.104      80.792      69.768      57.352      45.819      36.046      28.188    
  22.166      17.824      14.976      13.380      12.867      13.380      14.976      17.824      22.166      28.188    
  36.758      45.819      56.796      69.092      80.179      87.381      90.334      90.334      87.381      80.179    
  69.092      56.796      45.819      36.758      29.545      24.064      20.213      17.824      16.691      16.691    
  17.824      20.213      24.063      29.545      38.930      47.224      57.352      69.092      79.804      85.813    
  86.611      85.989      86.611      85.813      79.804      69.092      57.352      47.224      38.930      32.350    
  27.406      24.064      22.166      21.553      22.166      24.063      27.406      32.350      42.629      50.060    
  59.059      69.768      80.179      85.813      84.336      80.110      80.110      84.335      85.813      80.179    
  69.768      59.059      50.060      42.629      36.721      32.351      29.545      28.188      28.188      29.545    
  32.350      36.721      47.814      54.299      61.985      71.050      80.792      87.381      86.611      80.110    
  76.205      80.110      86.611      87.381      80.792      71.050      61.985      54.299      47.815      42.629    
  38.930      36.758      36.046      36.758      38.930      42.629      54.299      59.698      65.981      73.021    
  80.987      88.104      90.334      85.989      80.110      80.110      85.989      90.334      88.104      80.987    
  73.021      65.981      59.697      54.299      50.060      47.224      45.819      45.819      47.224      50.060    
  61.985      65.981      70.630      75.644      80.971      86.611      90.601      90.334      86.611      84.335    
  86.611      90.334      90.601      86.611      80.971      75.644      70.630      65.981      61.985      59.059    
  57.352      56.796      57.352      59.059      71.050      73.021      75.644      78.446      81.164      83.880    
  86.611      88.104      87.381      85.813      85.813      87.381      88.104      86.611      83.880      81.164    
  78.446      75.644      73.021      71.050      69.768      69.092      69.092      69.768      80.792      80.987    
  80.971      81.164      81.296      81.164      80.971      80.987      80.792      80.179      79.804      80.179    
  80.792      80.987      80.971      81.164      81.296      81.164      80.971      80.987      80.792      80.179    
  79.804      80.179      87.381      88.104      86.611      83.880      81.164      78.446      75.644      73.021    
  71.049      69.768      69.092      69.092      69.768      71.050      73.021      75.644      78.446      81.164    
  83.880      86.611      88.104      87.381      85.813      85.813      86.611      90.334      90.601      86.611    
  80.971      75.644      70.630      65.981      61.985      59.059      57.352      56.796      57.352      59.059    
  61.985      65.981      70.630      75.644      80.971      86.611      90.601      90.334      86.611      84.336    
  80.110      85.989      90.334      88.104      80.987      73.021      65.981      59.698      54.299      50.060    
  47.224      45.819      45.819      47.224      50.060      54.299      59.698      65.981      73.021      80.987    
  88.104      90.334      85.989      80.110      76.334      76.681      76.122      72.354      65.646      58.147    
  51.251      45.141      39.983      35.899      33.026      31.341      30.788      31.341      33.026      35.899    
  39.983      45.141      51.251      58.147      65.646      72.354      76.122      76.681      76.681      76.681    
  75.898      72.406      65.562      57.096      49.019      41.901      35.899      31.117      27.630      25.399    
  24.319      24.319      25.399      27.630      31.117      35.899      41.901      49.019      57.096      65.562    
  72.406      75.898      76.122      77.152      76.122      72.406      65.495      56.579      47.664      39.743    
  33.026      27.630      23.580      20.852      19.298      18.795      19.298      20.852      23.580      27.630    
  33.026      39.743      47.664      56.579      65.495      72.406      72.354      75.838      75.838      72.354    
  65.562      56.579      47.214      38.672      31.341      25.399      20.852      17.663      15.671      14.720    
  14.720      15.671      17.663      20.852      25.399      31.341      38.673      47.214      56.579      65.562    
  65.646      71.590      73.704      71.590      65.646      57.096      47.664      38.673      30.788      24.319    
  19.298      15.671      13.271      11.913      11.475      11.913      13.271      15.671      19.298      24.319    
  30.787      38.673      47.664      57.096      58.147      65.663      69.942      69.942      65.663      58.147    
  49.019      39.743      31.341      24.319      18.795      14.720      11.913      10.166      9.3305      9.3305    
  10.166      11.913      14.720      18.795      24.319      31.341      39.743      49.019      51.251      59.750    