Graphite surface slap                   
   1.00000000000000     
     2.441046    0.000000    0.000000
    -1.220523    2.114008    0.000000
     0.000000    0.000000   10.000000
   C 
     2
Direct
  0.000000  0.000000  0.000000
  0.333333  0.666667  0.000000
 
   24   24  100
 0.43576801095E+01 0.26781746573E+02 0.71593035874E+02 0.10167962788E+03 0.10543368159E+03
 0.94188006219E+02 0.80748758720E+02 0.69843940071E+02 0.60953633241E+02 0.53828934531E+02
 0.48656718146E+02 0.45607393235E+02 0.44608860586E+02 0.45607377738E+02 0.48656743933E+02
 0.53829125116E+02 0.60953356851E+02 0.69844159498E+02 0.80748615821E+02 0.94188090352E+02
 0.10543363942E+03 0.10167960866E+03 0.71593068727E+02 0.26781694265E+02 0.26781694261E+02
 0.26781644552E+02 0.58568148373E+02 0.90902841426E+02 0.10102531529E+03 0.91960289729E+02
 0.76883121053E+02 0.63865756316E+02 0.53828934531E+02 0.45932219035E+02 0.40033324100E+02
 0.36198078853E+02 0.34342416199E+02 0.34342330202E+02 0.36198215076E+02 0.40033119789E+02
 0.45932368842E+02 0.53828939323E+02 0.63865859657E+02 0.76883069208E+02 0.91960266215E+02
 0.10102536549E+03 0.90902701840E+02 0.58568177254E+02 0.71593068723E+02 0.60961998008E+02
 0.71593168193E+02 0.90902815511E+02 0.98724191207E+02 0.90411467762E+02 0.74631829367E+02
 0.59898957730E+02 0.48656718147E+02 0.40033324101E+02 0.33595169179E+02 0.29182363742E+02
 0.26672404816E+02 0.25863766253E+02 0.26672404984E+02 0.29182454906E+02 0.33595250789E+02
 0.40033400532E+02 0.48656624826E+02 0.59898919263E+02 0.74631946469E+02 0.90411237955E+02
 0.98724275555E+02 0.90902701839E+02 0.10167960866E+03 0.97442851941E+02 0.97442826803E+02
 0.10167958892E+03 0.10102534142E+03 0.90411431536E+02 0.73885770563E+02 0.57984546639E+02
 0.45607393236E+02 0.36198078854E+02 0.29182363743E+02 0.24239328860E+02 0.21181303609E+02
 0.19739204758E+02 0.19739214700E+02 0.21181293515E+02 0.24239331713E+02 0.29182330730E+02
 0.36198050813E+02 0.45607650877E+02 0.57984308684E+02 0.73885918066E+02 0.90411237955E+02
 0.10102536549E+03 0.10543363942E+03 0.11246563598E+03 0.11431665523E+03 0.11246562580E+03
 0.10543374698E+03 0.91960283343E+02 0.74631776898E+02 0.57984442087E+02 0.44608860588E+02
 0.34342416201E+02 0.26672404817E+02 0.21181303609E+02 0.17597550949E+02 0.15608791748E+02
 0.14974610320E+02 0.15608796394E+02 0.17597599586E+02 0.21181264178E+02 0.26672565675E+02
 0.34342209439E+02 0.44608920572E+02 0.57984308684E+02 0.74631946469E+02 0.91960266215E+02
 0.94188090352E+02 0.10807937119E+03 0.11561558397E+03 0.11561554370E+03 0.10807939037E+03
 0.94187824631E+02 0.76883174264E+02 0.59899057945E+02 0.45607377741E+02 0.34342330204E+02
 0.25863766254E+02 0.19739204759E+02 0.15608791749E+02 0.13103374696E+02 0.11926978248E+02
 0.11927048399E+02 0.13103260515E+02 0.15608835710E+02 0.19739054566E+02 0.25863835946E+02
 0.34342209439E+02 0.45607650876E+02 0.59898919262E+02 0.76883069208E+02 0.80748615820E+02
 0.96758673042E+02 0.10834832223E+03 0.11258059422E+03 0.10834826513E+03 0.96758638336E+02
 0.80748763859E+02 0.63865450582E+02 0.48656743936E+02 0.36198215078E+02 0.26672404985E+02
 0.19739214701E+02 0.14974610320E+02 0.11926978249E+02 0.10237158344E+02 0.96963060379E+01
 0.10237158420E+02 0.11926936930E+02 0.14974668102E+02 0.19739054566E+02 0.26672565674E+02
 0.36198050812E+02 0.48656624825E+02 0.63865859656E+02 0.69844159497E+02 0.86198800358E+02
 0.99985344722E+02 0.10796374243E+03 0.10796373828E+03 0.99985337117E+02 0.86198661678E+02
 0.69844122719E+02 0.53829125119E+02 0.40033119792E+02 0.29182454908E+02 0.21181293516E+02
 0.15608796395E+02 0.11927048400E+02 0.96963060381E+01 0.86432505167E+01 0.86431892769E+01
 0.96963538979E+01 0.11926936929E+02 0.15608835709E+02 0.21181264177E+02 0.29182330729E+02
 0.40033400531E+02 0.53828939322E+02 0.60953356850E+02 0.77383355349E+02 0.92755557871E+02
 0.10386952588E+03 0.10794353080E+03 0.10386952588E+03 0.92755557875E+02 0.77383355354E+02
 0.60953356855E+02 0.45932368845E+02 0.33595250792E+02 0.24239331715E+02 0.17597599588E+02
 0.13103260516E+02 0.10237158421E+02 0.86431892772E+01 0.81311511597E+01 0.86431892769E+01
 0.10237158420E+02 0.13103260514E+02 0.17597599586E+02 0.24239331712E+02 0.33595250788E+02
 0.45932368841E+02 0.53829125114E+02 0.69844122713E+02 0.86198661673E+02 0.99985337113E+02
 0.10796373828E+03 0.10796374243E+03 0.99985344726E+02 0.86198800363E+02 0.69844159503E+02
 0.53828939327E+02 0.40033400535E+02 0.29182330732E+02 0.21181264180E+02 0.15608835711E+02
 0.11926936930E+02 0.96963538985E+01 0.86431892771E+01 0.86432505166E+01 0.96963060376E+01
 0.11927048399E+02 0.15608796393E+02 0.21181293514E+02 0.29182454905E+02 0.40033119788E+02
 0.48656743932E+02 0.63865450576E+02 0.80748763853E+02 0.96758638331E+02 0.10834826513E+03
 0.11258059422E+03 0.10834832224E+03 0.96758673047E+02 0.80748615826E+02 0.63865859661E+02
 0.48656624829E+02 0.36198050816E+02 0.26672565677E+02 0.19739054568E+02 0.14974668103E+02
 0.11926936930E+02 0.10237158421E+02 0.96963060379E+01 0.10237158344E+02 0.11926978248E+02
 0.14974610319E+02 0.19739214699E+02 0.26672404983E+02 0.36198215074E+02 0.45607377737E+02
 0.59899057940E+02 0.76883174259E+02 0.94187824626E+02 0.10807939036E+03 0.11561554369E+03
 0.11561558397E+03 0.10807937120E+03 0.94188090357E+02 0.76883069213E+02 0.59898919267E+02
 0.45607650880E+02 0.34342209442E+02 0.25863835948E+02 0.19739054568E+02 0.15608835711E+02
 0.13103260515E+02 0.11927048400E+02 0.11926978248E+02 0.13103374695E+02 0.15608791747E+02
 0.19739204757E+02 0.25863766252E+02 0.34342330201E+02 0.44608860584E+02 0.57984442082E+02
 0.74631776893E+02 0.91960283338E+02 0.10543374697E+03 0.11246562580E+03 0.11431665523E+03
 0.11246563598E+03 0.10543363942E+03 0.91960266220E+02 0.74631946475E+02 0.57984308689E+02
 0.44608920575E+02 0.34342209442E+02 0.26672565677E+02 0.21181264179E+02 0.17597599587E+02
 0.15608796394E+02 0.14974610320E+02 0.15608791748E+02 0.17597550948E+02 0.21181303608E+02
 0.26672404815E+02 0.34342416198E+02 0.45607393233E+02 0.57984546634E+02 0.73885770557E+02
 0.90411431531E+02 0.10102534142E+03 0.10167958892E+03 0.97442826804E+02 0.97442851940E+02
 0.10167960866E+03 0.10102536549E+03 0.90411237960E+02 0.73885918071E+02 0.57984308689E+02
 0.45607650880E+02 0.36198050815E+02 0.29182330732E+02 0.24239331714E+02 0.21181293515E+02
 0.19739214700E+02 0.19739204758E+02 0.21181303608E+02 0.24239328859E+02 0.29182363741E+02
 0.36198078851E+02 0.48656718144E+02 0.59898957726E+02 0.74631829362E+02 0.90411467757E+02
 0.98724191207E+02 0.90902815516E+02 0.71593168199E+02 0.60961998008E+02 0.71593068717E+02
 0.90902701833E+02 0.98724275556E+02 0.90411237960E+02 0.74631946474E+02 0.59898919267E+02
 0.48656624829E+02 0.40033400535E+02 0.33595250791E+02 0.29182454907E+02 0.26672404984E+02
 0.25863766253E+02 0.26672404816E+02 0.29182363741E+02 0.33595169177E+02 0.40033324098E+02
 0.53828934528E+02 0.63865756312E+02 0.76883121048E+02 0.91960289725E+02 0.10102531529E+03
 0.90902841434E+02 0.58568148385E+02 0.26781644559E+02 0.26781694255E+02 0.58568177241E+02
 0.90902701832E+02 0.10102536549E+03 0.91960266220E+02 0.76883069213E+02 0.63865859660E+02
 0.53828939326E+02 0.45932368844E+02 0.40033119791E+02 0.36198215077E+02 0.34342330202E+02
 0.34342416199E+02 0.36198078852E+02 0.40033324099E+02 0.45932219033E+02 0.60953633239E+02
 0.69843940068E+02 0.80748758716E+02 0.94188006214E+02 0.10543368159E+03 0.10167962788E+03
 0.71593035887E+02 0.26781746586E+02 0.43576801095E+01 0.26781694251E+02 0.71593068713E+02
 0.10167960865E+03 0.10543363942E+03 0.94188090357E+02 0.80748615825E+02 0.69844159502E+02
 0.60953356854E+02 0.53829125118E+02 0.48656743935E+02 0.45607377739E+02 0.44608860586E+02
 0.45607393234E+02 0.48656718145E+02 0.53828934528E+02 0.69843940068E+02 0.77383375173E+02
 0.86198925470E+02 0.96758459995E+02 0.10807946800E+03 0.11246549760E+03 0.97442865801E+02
 0.60961899278E+02 0.26781746583E+02 0.26781644552E+02 0.60961998002E+02 0.97442851936E+02
 0.11246563598E+03 0.10807937120E+03 0.96758673047E+02 0.86198800362E+02 0.77383355353E+02
 0.69844122717E+02 0.63865450580E+02 0.59899057943E+02 0.57984442084E+02 0.57984546636E+02
 0.59898957728E+02 0.63865756313E+02 0.80748758717E+02 0.86198925471E+02 0.92755348846E+02
 0.99985514557E+02 0.10834826480E+03 0.11561555128E+03 0.11431658105E+03 0.97442865800E+02
 0.71593035884E+02 0.58568148379E+02 0.71593168192E+02 0.97442826800E+02 0.11431665523E+03
 0.11561558397E+03 0.10834832224E+03 0.99985344725E+02 0.92755557874E+02 0.86198661676E+02
 0.80748763857E+02 0.76883174262E+02 0.74631776896E+02 0.73885770560E+02 0.74631829364E+02
 0.76883121050E+02 0.94188006216E+02 0.96758459997E+02 0.99985514558E+02 0.10386948035E+03
 0.10796372115E+03 0.11258055987E+03 0.11561555128E+03 0.11246549760E+03 0.10167962788E+03
 0.90902841431E+02 0.90902815512E+02 0.10167958892E+03 0.11246562580E+03 0.11561554370E+03
 0.11258059422E+03 0.10796374243E+03 0.10386952588E+03 0.99985337115E+02 0.96758638334E+02
 0.94187824629E+02 0.91960283340E+02 0.90411431534E+02 0.90411467759E+02 0.91960289727E+02
 0.10543368159E+03 0.10807946801E+03 0.10834826480E+03 0.10796372115E+03 0.10794362962E+03
 0.10796372115E+03 0.10834826480E+03 0.10807946801E+03 0.10543368159E+03 0.10102531529E+03
 0.98724191207E+02 0.10102534142E+03 0.10543374697E+03 0.10807939036E+03 0.10834826513E+03
 0.10796373828E+03 0.10794353080E+03 0.10796373828E+03 0.10834826513E+03 0.10807939036E+03
 0.10543374697E+03 0.10102534142E+03 0.98724191207E+02 0.10102531529E+03 0.10167962788E+03
 0.11246549759E+03 0.11561555128E+03 0.11258055987E+03 0.10796372115E+03 0.10386948035E+03
 0.99985514559E+02 0.96758459998E+02 0.94188006217E+02 0.91960289727E+02 0.90411467759E+02
 0.90411431533E+02 0.91960283340E+02 0.94187824628E+02 0.96758638333E+02 0.99985337114E+02
 0.10386952588E+03 0.10796374243E+03 0.11258059422E+03 0.11561554369E+03 0.11246562580E+03
 0.10167958892E+03 0.90902815515E+02 0.90902841429E+02 0.71593035877E+02 0.97442865792E+02
 0.11431658105E+03 0.11561555128E+03 0.10834826480E+03 0.99985514560E+02 0.92755348848E+02
 0.86198925473E+02 0.80748758718E+02 0.76883121051E+02 0.74631829365E+02 0.73885770560E+02
 0.74631776895E+02 0.76883174261E+02 0.80748763855E+02 0.86198661674E+02 0.92755557872E+02
 0.99985344722E+02 0.10834832223E+03 0.11561558397E+03 0.11431665523E+03 0.97442826808E+02
 0.71593168200E+02 0.58568148379E+02 0.26781746576E+02 0.60961899265E+02 0.97442865792E+02
 0.11246549759E+03 0.10807946801E+03 0.96758459999E+02 0.86198925473E+02 0.77383375175E+02
 0.69843940070E+02 0.63865756315E+02 0.59898957728E+02 0.57984546637E+02 0.57984442084E+02
 0.59899057942E+02 0.63865450578E+02 0.69844122715E+02 0.77383355350E+02 0.86198800359E+02
 0.96758673043E+02 0.10807937119E+03 0.11246563598E+03 0.97442851945E+02 0.60961998015E+02
 0.26781644559E+02 0.21096022029E+02 0.39853699406E+02 0.77036771292E+02 0.10114472532E+03
 0.10251634364E+03 0.91175173293E+02 0.78302565048E+02 0.67858622715E+02 0.59286341967E+02
 0.52413308935E+02 0.47431245451E+02 0.44496351231E+02 0.43535183702E+02 0.44496328750E+02
 0.47431341232E+02 0.52413429119E+02 0.59286111970E+02 0.67858834861E+02 0.78302396768E+02
 0.91175293321E+02 0.10251629040E+03 0.10114469609E+03 0.77036819005E+02 0.39853640422E+02
 0.39853643020E+02 0.39853534373E+02 0.66136908607E+02 0.92206982798E+02 0.98894817950E+02
 0.89141067693E+02 0.74548960181E+02 0.62098303048E+02 0.52413308936E+02 0.44775603094E+02
 0.39072771115E+02 0.35371641751E+02 0.33581238094E+02 0.33581128593E+02 0.35371775033E+02
 0.39072533218E+02 0.44775818118E+02 0.52413259462E+02 0.62098482076E+02 0.74548839392E+02
 0.89141099356E+02 0.98894802338E+02 0.92206902666E+02 0.66136863248E+02 0.77036807618E+02
 0.68432704542E+02 0.77036906496E+02 0.92207032518E+02 0.96984316160E+02 0.87772769538E+02
 0.72373516241E+02 0.58264691162E+02 0.47431245452E+02 0.39072771115E+02 0.32824867945E+02
 0.28549913414E+02 0.26119349663E+02 0.25336240240E+02 0.26119374359E+02 0.28550002425E+02
 0.32824949497E+02 0.39072843231E+02 0.47431119785E+02 0.58264698120E+02 0.72373606183E+02
 0.87772558265E+02 0.96984391090E+02 0.92206911450E+02 0.10114468479E+03 0.98479465857E+02
 0.98479474817E+02 0.10114462745E+03 0.98894839327E+02 0.87772712966E+02 0.71657003128E+02
 0.56409502737E+02 0.44496351232E+02 0.35371641751E+02 0.28549913414E+02 0.23743270720E+02
 0.20770401449E+02 0.19367635434E+02 0.19367657470E+02 0.20770351020E+02 0.23743322160E+02
 0.28549824871E+02 0.35371705022E+02 0.44496539349E+02 0.56409296683E+02 0.71657114079E+02
 0.87772535586E+02 0.98894816235E+02 0.10251632478E+03 0.10986937645E+03 0.11194136036E+03
 0.10986938122E+03 0.10251643178E+03 0.89141045761E+02 0.72373492402E+02 0.56409395671E+02
 0.43535183704E+02 0.33581238095E+02 0.26119349664E+02 0.20770401449E+02 0.17278904939E+02
 0.15339296774E+02 0.14720361250E+02 0.15339307728E+02 0.17278948334E+02 0.20770364499E+02
 0.26119480065E+02 0.33581031189E+02 0.43535247738E+02 0.56409273599E+02 0.72373651947E+02
 0.89141062377E+02 0.91175256629E+02 0.10461172259E+03 0.11195939437E+03 0.11195934531E+03
 0.10461171773E+03 0.91175004464E+02 0.74549013272E+02 0.58264760034E+02 0.44496328753E+02
 0.33581128595E+02 0.25336240241E+02 0.19367635435E+02 0.15339296774E+02 0.12891959613E+02
 0.11741434050E+02 0.11741507535E+02 0.12891858897E+02 0.15339320897E+02 0.19367533512E+02
 0.25336283287E+02 0.33581028877E+02 0.44496564745E+02 0.58264650044E+02 0.74548878684E+02
 0.78302459889E+02 0.93645568828E+02 0.10475800240E+03 0.10881924041E+03 0.10475794194E+03
 0.93645550437E+02 0.78302555147E+02 0.62097989481E+02 0.47431341235E+02 0.35371775035E+02
 0.26119374361E+02 0.19367657471E+02 0.14720361251E+02 0.11741434050E+02 0.10086991757E+02
 0.95569000510E+01 0.10086972017E+02 0.11741409846E+02 0.14720385596E+02 0.19367507082E+02
 0.26119508807E+02 0.35371653196E+02 0.47431194290E+02 0.62098416354E+02 0.67858799873E+02
 0.83590454644E+02 0.96816455507E+02 0.10446134086E+03 0.10446132300E+03 0.96816461656E+02
 0.83590277441E+02 0.67858843333E+02 0.52413429123E+02 0.39072533221E+02 0.28550002427E+02
 0.20770351022E+02 0.15339307729E+02 0.11741507535E+02 0.95569000513E+01 0.85241507128E+01
 0.85241137059E+01 0.95569359629E+01 0.11741437980E+02 0.15339319192E+02 0.20770363891E+02
 0.28549848563E+02 0.39072796859E+02 0.52413297049E+02 0.59286142663E+02 0.75118600061E+02
 0.89903159288E+02 0.10057909818E+03 0.10449026933E+03 0.10057908931E+03 0.89903160502E+02
 0.75118591617E+02 0.59286111974E+02 0.44775818121E+02 0.32824949499E+02 0.23743322163E+02
 0.17278948336E+02 0.12891858899E+02 0.10086972018E+02 0.85241137062E+01 0.80215756349E+01
 0.85241179997E+01 0.10086939590E+02 0.12891864896E+02 0.17278944648E+02 0.23743302762E+02
 0.32824991574E+02 0.44775784823E+02 0.52413402718E+02 0.67858830585E+02 0.83590282939E+02
 0.96816448493E+02 0.10446132729E+03 0.10446134543E+03 0.96816458595E+02 0.83590458805E+02
 0.67858834865E+02 0.52413259466E+02 0.39072843235E+02 0.28549824874E+02 0.20770364501E+02
 0.15339320898E+02 0.11741409847E+02 0.95569359634E+01 0.85241179999E+01 0.85241421251E+01
 0.95569367723E+01 0.11741497242E+02 0.15339315707E+02 0.20770366124E+02 0.28549964640E+02
 0.39072562217E+02 0.47431339497E+02 0.62098030353E+02 0.78302521505E+02 0.93645591726E+02
 0.10475790951E+03 0.10881926397E+03 0.10475797118E+03 0.93645592811E+02 0.78302396773E+02
 0.62098482080E+02 0.47431119789E+02 0.35371705025E+02 0.26119480068E+02 0.19367533514E+02
 0.14720385597E+02 0.11741437981E+02 0.10086939590E+02 0.95569367725E+01 0.10086926901E+02
 0.11741472475E+02 0.14720325136E+02 0.19367670499E+02 0.26119384009E+02 0.35371774166E+02
 0.44496304053E+02 0.58264745582E+02 0.74549020474E+02 0.91174989595E+02 0.10461172373E+03
 0.11195934818E+03 0.11195939916E+03 0.10461172504E+03 0.91175293326E+02 0.74548839398E+02
 0.58264698125E+02 0.44496539353E+02 0.33581031192E+02 0.25336283289E+02 0.19367507084E+02
 0.15339319193E+02 0.12891864896E+02 0.11741497243E+02 0.11741472476E+02 0.12891947615E+02
 0.15339306457E+02 0.19367648834E+02 0.25336204159E+02 0.33581155887E+02 0.43535210709E+02
 0.56409407801E+02 0.72373487501E+02 0.89141058307E+02 0.10251642809E+03 0.10986937604E+03
 0.11194135788E+03 0.10986937169E+03 0.10251629040E+03 0.89141099362E+02 0.72373606189E+02
 0.56409296688E+02 0.43535247742E+02 0.33581028879E+02 0.26119508809E+02 0.20770363892E+02
 0.17278944649E+02 0.15339315708E+02 0.14720325137E+02 0.15339306458E+02 0.17278897567E+02
 0.20770385735E+02 0.26119388054E+02 0.33581208484E+02 0.44496301137E+02 0.56409513681E+02
 0.71656984934E+02 0.87772723494E+02 0.98894819927E+02 0.10114465571E+03 0.98479454211E+02
 0.98479493704E+02 0.10114469609E+03 0.98894802341E+02 0.87772558270E+02 0.71657114084E+02
 0.56409273603E+02 0.44496564749E+02 0.35371653198E+02 0.28549848565E+02 0.23743302764E+02
 0.20770366125E+02 0.19367670500E+02 0.19367648834E+02 0.20770385736E+02 0.23743309516E+02
 0.28549851936E+02 0.35371694441E+02 0.47431318220E+02 0.58264657529E+02 0.72373557105E+02
 0.87772736321E+02 0.96984358237E+02 0.92206981578E+02 0.77036949788E+02 0.68432654014E+02
 0.77036818998E+02 0.92206902662E+02 0.96984391091E+02 0.87772535590E+02 0.72373651952E+02
 0.58264650048E+02 0.47431194294E+02 0.39072796862E+02 0.32824991576E+02 0.28549964642E+02
 0.26119384010E+02 0.25336204160E+02 0.26119388055E+02 0.28549851937E+02 0.32824952100E+02
 0.39072695741E+02 0.52413244945E+02 0.62098327889E+02 0.74548928092E+02 0.89141092117E+02
 0.98894784655E+02 0.92207024964E+02 0.66136874114E+02 0.39853576121E+02 0.39853640415E+02
 0.66136863237E+02 0.92206911445E+02 0.98894816235E+02 0.89141062381E+02 0.74548878689E+02
 0.62098416358E+02 0.52413297053E+02 0.44775784826E+02 0.39072562220E+02 0.35371774168E+02
 0.33581155889E+02 0.33581208486E+02 0.35371694442E+02 0.39072695741E+02 0.44775669680E+02
 0.59286403351E+02 0.67858600467E+02 0.78302594529E+02 0.91175151461E+02 0.10251637433E+03
 0.10114468576E+03 0.77036803206E+02 0.39853660274E+02 0.21096022029E+02 0.39853643012E+02
 0.77036807609E+02 0.10114468479E+03 0.10251632478E+03 0.91175256633E+02 0.78302459893E+02
 0.67858799877E+02 0.59286142667E+02 0.52413402721E+02 0.47431339500E+02 0.44496304056E+02
 0.43535210710E+02 0.44496301138E+02 0.47431318221E+02 0.52413244946E+02 0.67858600468E+02
 0.75118668792E+02 0.83590513973E+02 0.93645397924E+02 0.10461181717E+03 0.10986922047E+03
 0.98479511575E+02 0.68432562614E+02 0.39853699415E+02 0.39853534372E+02 0.68432704535E+02
 0.98479465852E+02 0.10986937645E+03 0.10461172259E+03 0.93645568832E+02 0.83590454649E+02
 0.75118600065E+02 0.67858830589E+02 0.62098030356E+02 0.58264745584E+02 0.56409407803E+02
 0.56409513683E+02 0.58264657531E+02 0.62098327890E+02 0.78302594531E+02 0.83590513973E+02
 0.89902971938E+02 0.96816656608E+02 0.10475788747E+03 0.11195939256E+03 0.11194124821E+03
 0.98479504335E+02 0.77036771302E+02 0.66136908613E+02 0.77036906496E+02 0.98479474814E+02
 0.11194136036E+03 0.11195939437E+03 0.10475800240E+03 0.96816455511E+02 0.89903159292E+02
 0.83590282943E+02 0.78302521508E+02 0.74549020477E+02 0.72373487504E+02 0.71656984936E+02
 0.72373557107E+02 0.74548928094E+02 0.91175151464E+02 0.93645397927E+02 0.96816656609E+02
 0.10057899596E+03 0.10446137322E+03 0.10881916808E+03 0.11195940021E+03 0.10986922005E+03
 0.10114472532E+03 0.92206982804E+02 0.92207032520E+02 0.10114462745E+03 0.10986938122E+03
 0.11195934531E+03 0.10881924041E+03 0.10446134086E+03 0.10057909818E+03 0.96816448496E+02
 0.93645591730E+02 0.91174989598E+02 0.89141058310E+02 0.87772723496E+02 0.87772736324E+02
 0.89141092120E+02 0.10251637434E+03 0.10461181717E+03 0.10475788747E+03 0.10446137322E+03
 0.10449031949E+03 0.10446136436E+03 0.10475788868E+03 0.10461180872E+03 0.10251634364E+03
 0.98894817951E+02 0.96984316160E+02 0.98894839325E+02 0.10251643177E+03 0.10461171773E+03
 0.10475794194E+03 0.10446132300E+03 0.10449026933E+03 0.10446132729E+03 0.10475790951E+03
 0.10461172373E+03 0.10251642809E+03 0.98894819928E+02 0.96984358238E+02 0.98894784656E+02
 0.10114468576E+03 0.10986922047E+03 0.11195939256E+03 0.10881916808E+03 0.10446136436E+03
 0.10057901370E+03 0.96816646535E+02 0.93645415243E+02 0.91175173293E+02 0.89141067692E+02
 0.87772769536E+02 0.87772712964E+02 0.89141045758E+02 0.91175004462E+02 0.93645550435E+02
 0.96816461654E+02 0.10057908931E+03 0.10446134543E+03 0.10881926397E+03 0.11195934818E+03
 0.10986937604E+03 0.10114465571E+03 0.92206981578E+02 0.92207024962E+02 0.77036803198E+02
 0.98479511569E+02 0.11194124821E+03 0.11195940021E+03 0.10475788868E+03 0.96816646535E+02
 0.89902974359E+02 0.83590504317E+02 0.78302565048E+02 0.74548960180E+02 0.72373516239E+02
 0.71657003125E+02 0.72373492398E+02 0.74549013269E+02 0.78302555144E+02 0.83590277438E+02
 0.89903160499E+02 0.96816458593E+02 0.10475797118E+03 0.11195939916E+03 0.11194135789E+03
 0.98479454213E+02 0.77036949789E+02 0.66136874110E+02 0.39853660266E+02 0.68432562602E+02
 0.98479504327E+02 0.10986922005E+03 0.10461180872E+03 0.93645415243E+02 0.83590504317E+02
 0.75118685693E+02 0.67858622714E+02 0.62098303047E+02 0.58264691161E+02 0.56409502735E+02
 0.56409395668E+02 0.58264760031E+02 0.62097989477E+02 0.67858843330E+02 0.75118591614E+02
 0.83590458801E+02 0.93645592807E+02 0.10461172504E+03 0.10986937169E+03 0.98479493706E+02
 0.68432654019E+02 0.39853576121E+02 0.54508630551E+02 0.65318625049E+02 0.86011325548E+02
 0.97345605909E+02 0.93926096865E+02 0.82836093516E+02 0.71555165423E+02 0.62318188803E+02
 0.54616739115E+02 0.48440221822E+02 0.43987082684E+02 0.41368473739E+02 0.40510597778E+02
 0.41368452480E+02 0.43987255487E+02 0.48440188984E+02 0.54616647383E+02 0.62318306593E+02
 0.71555062958E+02 0.82836245083E+02 0.93926036101E+02 0.97345583924E+02 0.86011345911E+02
 0.65318615670E+02 0.65318623646E+02 0.65318456412E+02 0.79723915444E+02 0.92382200643E+02
 0.91973057045E+02 0.81210310837E+02 0.68121355739E+02 0.57179125134E+02 0.48440221822E+02
 0.41518253173E+02 0.36361137592E+02 0.33030978376E+02 0.31420682814E+02 0.31420606891E+02
 0.33031038450E+02 0.36360971189E+02 0.41518471846E+02 0.48440178488E+02 0.57179340000E+02
 0.68121149786E+02 0.81210404761E+02 0.91972936767E+02 0.92382213688E+02 0.79723754969E+02
 0.86011283542E+02 0.81751134090E+02 0.86011422706E+02 0.92382340591E+02 0.90900587724E+02
 0.80223743953E+02 0.66142045505E+02 0.53735742273E+02 0.43987082684E+02 0.36361137592E+02
 0.30643984745E+02 0.26753048093E+02 0.24542599378E+02 0.23830147516E+02 0.24542647137E+02
 0.26753127777E+02 0.30644037874E+02 0.36361209177E+02 0.43986929957E+02 0.53735842151E+02
 0.66142065180E+02 0.80223617650E+02 0.90900582887E+02 0.92382268081E+02 0.97345600572E+02
 0.97921970614E+02 0.97922001387E+02 0.97345471784E+02 0.91973087335E+02 0.80223657376E+02
 0.65497551138E+02 0.52053506612E+02 0.41368473740E+02 0.33030978377E+02 0.26753048093E+02
 0.22332001498E+02 0.19597442577E+02 0.18304605384E+02 0.18304670392E+02 0.19597327280E+02
 0.22332129100E+02 0.26752908598E+02 0.33031154221E+02 0.41368497067E+02 0.52053421693E+02
 0.65497522879E+02 0.80223571929E+02 0.91972928099E+02 0.93926064132E+02 0.10167195449E+03
 0.10411729918E+03 0.10167200087E+03 0.93926173883E+02 0.81210246161E+02 0.66142068598E+02
 0.52053439881E+02 0.40510597780E+02 0.31420682815E+02 0.24542599379E+02 0.19597442577E+02
 0.16366063893E+02 0.14564991330E+02 0.13988973517E+02 0.14565014172E+02 0.16366088512E+02
 0.19597419275E+02 0.24542635568E+02 0.31420567807E+02 0.40510615926E+02 0.52053377017E+02
 0.66142155580E+02 0.81210368756E+02 0.82836205401E+02 0.94903873385E+02 0.10162239563E+03
 0.10162237140E+03 0.94903778016E+02 0.82836008920E+02 0.68121410411E+02 0.53735706422E+02
 0.41368452482E+02 0.31420606893E+02 0.23830147518E+02 0.18304605385E+02 0.14564991331E+02
 0.12282179734E+02 0.11205160757E+02 0.11205177186E+02 0.12282143402E+02 0.14564954035E+02
 0.18304605919E+02 0.23830114190E+02 0.31420556154E+02 0.41368553396E+02 0.53735740100E+02
 0.68121197445E+02 0.71555124281E+02 0.85077639098E+02 0.94870047419E+02 0.98453897590E+02
 0.94869966881E+02 0.85077682123E+02 0.71555042170E+02 0.57178906082E+02 0.43987255490E+02
 0.33031038452E+02 0.24542647139E+02 0.18304670393E+02 0.13988973518E+02 0.11205160757E+02
 0.96513952451E+01 0.91521885389E+01 0.96513654877E+01 0.11205165379E+02 0.13988939332E+02
 0.18304584278E+02 0.24542668861E+02 0.33031076251E+02 0.43987053649E+02 0.57179270700E+02
 0.62318278866E+02 0.76356219938E+02 0.88069053815E+02 0.94810809177E+02 0.94810772767E+02
 0.88069063471E+02 0.76356027282E+02 0.62318422198E+02 0.48440188986E+02 0.36360971192E+02
 0.26753127779E+02 0.19597327282E+02 0.14565014173E+02 0.11205177187E+02 0.91521885393E+01
 0.81775685745E+01 0.81776067486E+01 0.91521509906E+01 0.11205198976E+02 0.14564942079E+02
 0.19597419579E+02 0.26752952970E+02 0.36361119082E+02 0.48440214189E+02 0.54616672290E+02
 0.68806833854E+02 0.81982077671E+02 0.91460419229E+02 0.94926617325E+02 0.91460414544E+02
 0.81982036354E+02 0.68806832305E+02 0.54616647386E+02 0.41518471849E+02 0.30644037877E+02
 0.22332129102E+02 0.16366088514E+02 0.12282143403E+02 0.96513654885E+01 0.81776067489E+01
 0.77023642413E+01 0.81776095662E+01 0.96513290724E+01 0.12282158176E+02 0.16366085390E+02
 0.22332087545E+02 0.30644125151E+02 0.41518438961E+02 0.48440166892E+02 0.62318417822E+02
 0.76355988774E+02 0.88069055963E+02 0.94810775583E+02 0.94810811048E+02 0.88069097957E+02
 0.76356218679E+02 0.62318306596E+02 0.48440178491E+02 0.36361209180E+02 0.26752908600E+02
 0.19597419277E+02 0.14564954037E+02 0.11205165379E+02 0.91521509911E+01 0.81776095664E+01
 0.81775629391E+01 0.91522277719E+01 0.11205159594E+02 0.14565020111E+02 0.19597366017E+02
 0.26753043317E+02 0.36361001255E+02 0.43987243978E+02 0.57178944047E+02 0.71555047071E+02
 0.85077723222E+02 0.94869930464E+02 0.98453929318E+02 0.94869969685E+02 0.85077673963E+02
 0.71555062962E+02 0.57179340005E+02 0.43986929961E+02 0.33031154224E+02 0.24542635570E+02
 0.18304605920E+02 0.13988939334E+02 0.11205198977E+02 0.96513290726E+01 0.91522277719E+01
 0.96513224139E+01 0.11205211947E+02 0.13988933980E+02 0.18304665252E+02 0.24542697998E+02
 0.33031041980E+02 0.41368442345E+02 0.53735690089E+02 0.68121383859E+02 0.82835989453E+02
 0.94903792788E+02 0.10162236131E+03 0.10162245172E+03 0.94903860167E+02 0.82836245088E+02
 0.68121149791E+02 0.53735842156E+02 0.41368497071E+02 0.31420567810E+02 0.23830114192E+02
 0.18304584279E+02 0.14564942079E+02 0.12282158177E+02 0.11205159594E+02 0.11205211947E+02
 0.12282150184E+02 0.14565009226E+02 0.18304632164E+02 0.23830075013E+02 0.31420625000E+02
 0.40510619563E+02 0.52053444553E+02 0.66142106793E+02 0.81210253966E+02 0.93926170758E+02
 0.10167199930E+03 0.10411725474E+03 0.10167195606E+03 0.93926036106E+02 0.81210404767E+02
 0.66142065186E+02 0.52053421697E+02 0.40510615929E+02 0.31420556157E+02 0.24542668863E+02
 0.19597419580E+02 0.16366085391E+02 0.14565020112E+02 0.13988933980E+02 0.14565009226E+02
 0.16366057649E+02 0.19597404143E+02 0.24542683532E+02 0.31420653049E+02 0.41368407274E+02
 0.52053546609E+02 0.65497468257E+02 0.80223694239E+02 0.91973045777E+02 0.97345518025E+02
 0.97922001153E+02 0.97922013722E+02 0.97345583927E+02 0.91972936772E+02 0.80223617656E+02
 0.65497522884E+02 0.52053377020E+02 0.41368553399E+02 0.33031076253E+02 0.26752952972E+02
 0.22332087546E+02 0.19597366018E+02 0.18304665253E+02 0.18304632164E+02 0.19597404143E+02
 0.22332084607E+02 0.26752919259E+02 0.33031052814E+02 0.43987194867E+02 0.53735656546E+02
 0.66142174099E+02 0.80223661359E+02 0.90900674999E+02 0.92382248628E+02 0.86011468664E+02
 0.81751045259E+02 0.86011345909E+02 0.92382213687E+02 0.90900582890E+02 0.80223571932E+02
 0.66142155584E+02 0.53735740103E+02 0.43987053652E+02 0.36361119084E+02 0.30644125153E+02
 0.26753043318E+02 0.24542697999E+02 0.23830075014E+02 0.24542683533E+02 0.26752919260E+02
 0.30644159298E+02 0.36361017428E+02 0.48440164027E+02 0.57179156461E+02 0.68121281529E+02
 0.81210339030E+02 0.91973024159E+02 0.92382238217E+02 0.79723923886E+02 0.65318490854E+02
 0.65318615666E+02 0.79723754963E+02 0.92382268078E+02 0.91972928099E+02 0.81210368758E+02
 0.68121197449E+02 0.57179270703E+02 0.48440214192E+02 0.41518438964E+02 0.36361001258E+02
 0.33031041982E+02 0.31420625002E+02 0.31420653051E+02 0.33031052815E+02 0.36361017429E+02
 0.41518318940E+02 0.54616788929E+02 0.62318165446E+02 0.71555231649E+02 0.82836073292E+02
 0.93926121770E+02 0.97345576314E+02 0.86011309141E+02 0.65318598593E+02 0.54508630551E+02
 0.65318623640E+02 0.86011283536E+02 0.97345600570E+02 0.93926064133E+02 0.82836205404E+02
 0.71555124285E+02 0.62318278870E+02 0.54616672293E+02 0.48440166895E+02 0.43987243981E+02
 0.41368442347E+02 0.40510619564E+02 0.41368407276E+02 0.43987194868E+02 0.48440164028E+02
 0.62318165447E+02 0.68807026044E+02 0.76356078329E+02 0.85077623299E+02 0.94903891892E+02
 0.10167180558E+03 0.97922049859E+02 0.81750959612E+02 0.65318625054E+02 0.65318456412E+02
 0.81751134086E+02 0.97921970611E+02 0.10167195449E+03 0.94903873388E+02 0.85077639102E+02
 0.76356219942E+02 0.68806833859E+02 0.62318417826E+02 0.57178944050E+02 0.53735690091E+02
 0.52053444555E+02 0.52053546611E+02 0.53735656547E+02 0.57179156463E+02 0.71555231651E+02
 0.76356078329E+02 0.81982028845E+02 0.88069239607E+02 0.94869859604E+02 0.10162246141E+03
 0.10411710099E+03 0.97922006986E+02 0.86011325555E+02 0.79723915449E+02 0.86011422705E+02
 0.97922001385E+02 0.10411729918E+03 0.10162239563E+03 0.94870047423E+02 0.88069053819E+02
 0.81982077675E+02 0.76355988778E+02 0.71555047075E+02 0.68121383862E+02 0.66142106795E+02
 0.65497468260E+02 0.66142174102E+02 0.68121281532E+02 0.82836073295E+02 0.85077623301E+02
 0.88069239608E+02 0.91460256955E+02 0.94810943444E+02 0.98453736954E+02 0.10162250742E+03
 0.10167180245E+03 0.97345605913E+02 0.92382200647E+02 0.92382340592E+02 0.97345471783E+02
 0.10167200087E+03 0.10162237140E+03 0.98453897592E+02 0.94810809180E+02 0.91460419232E+02
 0.88069055966E+02 0.85077723226E+02 0.82835989457E+02 0.81210253968E+02 0.80223694241E+02