   2   2   0   0
  0.2580196E+02  0.2441046E-09  0.2441046E-09  0.1000000E-08  0.5000000E-15
  1.000000000000000E-004
  CAR 
 Graphite surface slap                   
     13.60447141    -23.11523337  301     -1.37823641      1.00000000
    -23.115  0.0000E+00  0.0000E+00
    -22.993  0.0000E+00  0.0000E+00
    -22.870  0.0000E+00  0.0000E+00
    -22.748  0.1660E-27  0.2032E-28
    -22.626  0.1957E-23  0.2396E-24
    -22.503  0.1067E-19  0.1306E-20
    -22.381  0.2674E-16  0.3274E-17
    -22.258  0.3069E-13  0.3760E-14
    -22.136  0.1592E-10  0.1952E-11
    -22.014  0.3681E-08  0.4525E-09
    -21.891  0.3699E-06  0.4572E-07
    -21.769  0.1537E-04  0.1927E-05
    -21.646  0.2340E-03  0.3056E-04
    -21.524  0.7648E-03  0.1242E-03
    -21.402 -0.3747E-02 -0.3345E-03
    -21.279 -0.1863E-02 -0.5626E-03
    -21.157  0.6185E-01  0.7008E-02
    -21.034  0.6198E-01  0.1459E-01
    -20.912  0.1940E+00  0.3833E-01
    -20.790  0.6837E+00  0.1220E+00
    -20.667  0.4619E+00  0.1786E+00
    -20.545 -0.2851E-01  0.1751E+00
    -20.422 -0.8349E-01  0.1649E+00
    -20.300  0.2699E+00  0.1979E+00
    -20.178  0.6789E+00  0.2810E+00
    -20.055  0.4101E+00  0.3312E+00
    -19.933  0.5720E+00  0.4012E+00
    -19.810  0.5525E+00  0.4688E+00
    -19.688  0.4157E-01  0.4739E+00
    -19.566 -0.3870E-01  0.4692E+00
    -19.443  0.7078E-02  0.4700E+00
    -19.321 -0.8401E-01  0.4598E+00
    -19.198  0.5947E-01  0.4670E+00
    -19.076  0.1122E+01  0.6044E+00
    -18.954  0.1259E+01  0.7584E+00
    -18.831  0.1523E+00  0.7771E+00
    -18.709 -0.1589E+00  0.7576E+00
    -18.586  0.1534E+00  0.7764E+00
    -18.464  0.6950E+00  0.8615E+00
    -18.342  0.4665E+00  0.9186E+00
    -18.219 -0.1343E-01  0.9169E+00
    -18.097 -0.2846E-01  0.9134E+00
    -17.974 -0.3090E-02  0.9131E+00
    -17.852 -0.5032E-01  0.9069E+00
    -17.730  0.1998E+00  0.9313E+00
    -17.607  0.6129E+00  0.1006E+01
    -17.485  0.5385E+00  0.1072E+01
    -17.362  0.1187E+01  0.1218E+01
    -17.240  0.1137E+01  0.1357E+01
    -17.118  0.9136E-01  0.1368E+01
    -16.995 -0.8581E-01  0.1357E+01
    -16.873 -0.6492E-02  0.1357E+01
    -16.750 -0.5168E-01  0.1350E+01
    -16.628  0.2318E+00  0.1379E+01
    -16.506  0.7210E+00  0.1467E+01
    -16.383  0.3768E+00  0.1513E+01
    -16.261 -0.3423E-01  0.1509E+01
    -16.138 -0.1758E-01  0.1507E+01
    -16.016 -0.7750E-01  0.1497E+01
    -15.894  0.5084E-01  0.1504E+01
    -15.771  0.1060E+01  0.1633E+01
    -15.649  0.1449E+01  0.1811E+01
    -15.526  0.8678E+00  0.1917E+01
    -15.404  0.3192E+00  0.1956E+01
    -15.282 -0.2798E-01  0.1952E+01
    -15.159 -0.2053E-01  0.1950E+01
    -15.037  0.9529E-02  0.1951E+01
    -14.914 -0.2182E-01  0.1948E+01
    -14.792 -0.3847E-01  0.1944E+01
    -14.670  0.3784E+00  0.1990E+01
    -14.547  0.7226E+00  0.2079E+01
    -14.425  0.2314E+00  0.2107E+01
    -14.303 -0.8672E-01  0.2096E+01
    -14.180  0.1134E-01  0.2098E+01
    -14.058  0.4048E+00  0.2147E+01
    -13.935  0.8282E+00  0.2249E+01
    -13.813  0.7173E+00  0.2336E+01
    -13.691  0.1430E+00  0.2354E+01
    -13.568 -0.1135E+00  0.2340E+01
    -13.446 -0.5317E-01  0.2333E+01
    -13.323  0.8695E+00  0.2440E+01
    -13.201  0.1408E+01  0.2612E+01
    -13.079  0.3626E+00  0.2657E+01
    -12.956 -0.1127E+00  0.2643E+01
    -12.834 -0.3836E-02  0.2642E+01
    -12.711 -0.3632E-01  0.2638E+01
    -12.589 -0.7903E-01  0.2628E+01
    -12.467  0.7261E+00  0.2717E+01
    -12.344  0.1434E+01  0.2893E+01
    -12.222  0.6109E+00  0.2967E+01
    -12.099  0.1261E+00  0.2983E+01
    -11.977  0.4998E-01  0.2989E+01
    -11.855 -0.1057E-01  0.2988E+01
    -11.732 -0.8424E-03  0.2988E+01
    -11.610  0.7321E-02  0.2988E+01
    -11.487  0.1483E-03  0.2988E+01
    -11.365 -0.1009E+00  0.2976E+01
    -11.243  0.1596E+00  0.2996E+01
    -11.120  0.1258E+01  0.3150E+01
    -10.998  0.1086E+01  0.3283E+01
    -10.875 -0.3336E-01  0.3278E+01
    -10.753  0.5562E+00  0.3347E+01
    -10.631  0.1462E+01  0.3525E+01
    -10.508  0.5717E+00  0.3595E+01
    -10.386 -0.1058E+00  0.3582E+01
    -10.263 -0.2819E-01  0.3579E+01
    -10.141  0.1661E-01  0.3581E+01
    -10.019  0.1235E-02  0.3581E+01
     -9.896 -0.1257E+00  0.3566E+01
     -9.774  0.1894E+00  0.3589E+01
     -9.651  0.1677E+01  0.3794E+01
     -9.529  0.1766E+01  0.4010E+01
     -9.407  0.2406E+00  0.4040E+01
     -9.284 -0.1041E+00  0.4027E+01
     -9.162  0.9609E-01  0.4039E+01
     -9.039 -0.2577E-01  0.4036E+01
     -8.917  0.4183E+00  0.4087E+01
     -8.795  0.1346E+01  0.4252E+01
     -8.672  0.8250E+00  0.4353E+01
     -8.550  0.9776E+00  0.4472E+01
     -8.427  0.1210E+01  0.4620E+01
     -8.305  0.1991E+00  0.4645E+01
     -8.183  0.7562E+00  0.4737E+01
     -8.060  0.1306E+01  0.4897E+01
     -7.938  0.5500E+00  0.4964E+01
     -7.815  0.9849E+00  0.5085E+01
     -7.693  0.1753E+01  0.5300E+01
     -7.571  0.1555E+01  0.5490E+01
     -7.448  0.3855E+00  0.5537E+01
     -7.326  0.2754E+00  0.5571E+01
     -7.203  0.1085E+01  0.5704E+01
     -7.081  0.8940E+00  0.5813E+01
     -6.959  0.5408E-01  0.5820E+01
     -6.836  0.4542E+00  0.5875E+01
     -6.714  0.1454E+01  0.6053E+01
     -6.591  0.6976E+00  0.6139E+01
     -6.469 -0.2003E+00  0.6114E+01
     -6.347  0.1377E+00  0.6131E+01
     -6.224  0.1459E+01  0.6310E+01
     -6.102  0.1697E+01  0.6517E+01
     -5.979  0.5132E+00  0.6580E+01
     -5.857 -0.1183E+00  0.6566E+01
     -5.735 -0.3102E-02  0.6565E+01
     -5.612  0.5667E+00  0.6635E+01
     -5.490  0.6368E+00  0.6713E+01
     -5.367  0.1268E-01  0.6714E+01
     -5.245  0.3957E-01  0.6719E+01
     -5.123  0.9250E+00  0.6832E+01
     -5.000  0.1430E+01  0.7007E+01
     -4.878  0.1560E+01  0.7198E+01
     -4.755  0.9432E+00  0.7314E+01
     -4.633  0.1278E-01  0.7315E+01
     -4.511  0.6321E-01  0.7323E+01
     -4.388  0.2099E+00  0.7349E+01
     -4.266  0.4883E+00  0.7408E+01
     -4.143  0.6826E+00  0.7492E+01
     -4.021  0.1761E+00  0.7514E+01
     -3.899 -0.5364E-01  0.7507E+01
     -3.776 -0.4639E-01  0.7501E+01
     -3.654  0.3852E-01  0.7506E+01
     -3.531  0.5229E+00  0.7570E+01
     -3.409  0.5298E+00  0.7635E+01
     -3.287  0.6787E+00  0.7718E+01
     -3.164  0.1407E+01  0.7890E+01
     -3.042  0.6137E+00  0.7965E+01
     -2.919 -0.9801E-01  0.7953E+01
     -2.797 -0.3295E-01  0.7949E+01
     -2.675  0.9025E-02  0.7950E+01
     -2.552  0.1997E-02  0.7951E+01
     -2.430  0.1110E-03  0.7951E+01
     -2.307  0.2329E-05  0.7951E+01
     -2.185  0.5238E-06  0.7951E+01
     -2.063  0.2630E-04  0.7951E+01
     -1.940  0.5254E-03  0.7951E+01
     -1.818  0.2864E-02  0.7951E+01
     -1.695 -0.7743E-02  0.7950E+01
     -1.573 -0.3727E-01  0.7946E+01
     -1.451  0.1655E+00  0.7966E+01
     -1.328  0.4830E+00  0.8025E+01
     -1.206  0.2388E+00  0.8054E+01
     -1.083 -0.2839E-01  0.8051E+01
     -0.961 -0.1426E-01  0.8049E+01
     -0.839  0.3032E-02  0.8049E+01
     -0.716  0.8047E-03  0.8049E+01
     -0.594  0.4935E-04  0.8049E+01
     -0.471  0.2151E-04  0.8049E+01
     -0.349  0.5142E-03  0.8049E+01
     -0.227  0.4383E-02  0.8050E+01
     -0.104  0.2477E-02  0.8050E+01
      0.018 -0.6000E-01  0.8043E+01
      0.141  0.3777E-01  0.8048E+01
      0.263  0.9026E+00  0.8158E+01
      0.385  0.1792E+01  0.8377E+01
      0.508  0.1031E+01  0.8504E+01
      0.630 -0.6742E-01  0.8495E+01
      0.753  0.7075E-02  0.8496E+01
      0.875  0.6381E+00  0.8574E+01
      0.997  0.5623E+00  0.8643E+01
      1.120  0.2889E-01  0.8647E+01
      1.242 -0.4312E-01  0.8641E+01
      1.365 -0.6048E-02  0.8641E+01
      1.487  0.2475E-01  0.8644E+01
      1.609  0.1210E+00  0.8659E+01
      1.732 -0.8353E-02  0.8657E+01
      1.854 -0.4213E-01  0.8652E+01
      1.977  0.1380E+01  0.8821E+01
      2.099  0.2071E+01  0.9075E+01
      2.221  0.4745E+00  0.9133E+01
      2.344 -0.1778E+00  0.9111E+01
      2.466 -0.7422E-01  0.9102E+01
      2.589  0.1946E+00  0.9126E+01
      2.711  0.8652E+00  0.9232E+01
      2.833  0.1044E+01  0.9359E+01
      2.956  0.4052E+00  0.9409E+01
      3.078  0.8485E-01  0.9419E+01
      3.201  0.6078E+00  0.9494E+01
      3.323  0.6058E+00  0.9568E+01
      3.445  0.3845E+00  0.9615E+01
      3.568  0.9392E+00  0.9730E+01
      3.690  0.9774E+00  0.9850E+01
      3.813  0.2893E+00  0.9885E+01
      3.935 -0.5161E-01  0.9879E+01
      4.057 -0.6285E-01  0.9871E+01
      4.180 -0.1617E-01  0.9869E+01
      4.302  0.7383E+00  0.9959E+01
      4.425  0.1737E+01  0.1017E+02
      4.547  0.1229E+01  0.1032E+02
      4.669  0.4920E+00  0.1038E+02
      4.792  0.6047E+00  0.1046E+02
      4.914  0.1174E+01  0.1060E+02
      5.037  0.1192E+01  0.1075E+02
      5.159  0.4912E+00  0.1081E+02
      5.281  0.6270E+00  0.1088E+02
      5.404  0.3085E+00  0.1092E+02
      5.526 -0.3903E-01  0.1092E+02
      5.649 -0.9988E-01  0.1090E+02
      5.771  0.5294E-01  0.1091E+02
      5.893  0.1108E+01  0.1105E+02
      6.016  0.1267E+01  0.1120E+02
      6.138  0.9630E-01  0.1121E+02
      6.261  0.7383E-01  0.1122E+02
      6.383  0.1037E+01  0.1135E+02
      6.505  0.1135E+01  0.1149E+02
      6.628  0.8291E+00  0.1159E+02
      6.750  0.1805E+01  0.1181E+02
      6.873  0.2652E+01  0.1213E+02
      6.995  0.1675E+01  0.1234E+02
      7.117  0.1068E+01  0.1247E+02
      7.240  0.8521E+00  0.1257E+02
      7.362  0.1220E+00  0.1259E+02
      7.485  0.1137E+00  0.1260E+02
      7.607  0.1475E+01  0.1278E+02
      7.729  0.2575E+01  0.1310E+02
      7.852  0.1732E+01  0.1331E+02
      7.974  0.1476E+01  0.1349E+02
      8.097  0.1936E+01  0.1373E+02
      8.219  0.1926E+01  0.1396E+02
      8.341  0.1772E+01  0.1418E+02
      8.464  0.4622E+00  0.1424E+02
      8.586 -0.1226E+00  0.1422E+02
      8.709 -0.1169E-01  0.1422E+02
      8.831  0.7872E-02  0.1422E+02
      8.953 -0.1077E+00  0.1421E+02
      9.076  0.2100E+00  0.1424E+02
      9.198  0.1360E+01  0.1440E+02
      9.321  0.1252E+01  0.1455E+02
      9.443  0.7002E+00  0.1464E+02
      9.565  0.1468E+01  0.1482E+02
      9.688  0.1384E+01  0.1499E+02
      9.810  0.3075E+00  0.1503E+02
      9.933  0.5263E+00  0.1509E+02
     10.055  0.9874E+00  0.1521E+02
     10.177  0.8002E+00  0.1531E+02
     10.300  0.9860E+00  0.1543E+02
     10.422  0.1638E+01  0.1563E+02
     10.544  0.1043E+01  0.1576E+02
     10.667  0.1260E-01  0.1576E+02
     10.789 -0.7420E-01  0.1575E+02
     10.912  0.1031E-01  0.1575E+02
     11.034 -0.3567E-01  0.1575E+02
     11.156  0.2018E-01  0.1575E+02
     11.279  0.5324E+00  0.1582E+02
     11.401  0.6069E+00  0.1589E+02
     11.524  0.2359E+00  0.1592E+02
     11.646  0.4237E+00  0.1597E+02
     11.768  0.2654E+00  0.1600E+02
     11.891 -0.1935E-01  0.1600E+02
     12.013 -0.1663E-01  0.1600E+02
     12.136  0.2987E-02  0.1600E+02
     12.258  0.9310E-03  0.1600E+02
     12.380  0.6109E-04  0.1600E+02
     12.503  0.1468E-05  0.1600E+02
     12.625  0.1459E-07  0.1600E+02
     12.748  0.6301E-10  0.1600E+02
     12.870  0.1213E-12  0.1600E+02
     12.992  0.8959E-16  0.1600E+02
     13.115  0.0000E+00  0.1600E+02
     13.237  0.0000E+00  0.1600E+02
     13.360  0.0000E+00  0.1600E+02
     13.482  0.0000E+00  0.1600E+02
     13.604  0.0000E+00  0.1600E+02
