    2    2    1    1
  0.2580196E+02  0.2441046E-09  0.2441046E-09  0.1000000E-08  0.5000000E-15
  1.000000000000000E-004
  CAR 
 Graphite surface slap                   
      8     12      8
 
  0.3742002E-15  0.3742002E-15  0.1262379E-14  0.1234568E-01
    1      -21.115233   1.000000
    2       -9.191611   1.000000
    3       -4.487574   1.000000
    4       -4.487525   1.000000
    5        1.593837   0.000000
    6        3.093908   0.000000
    7        7.065915   0.000000
    8        7.065954   0.000000
 
  0.1111111E+00  0.3885781E-15  0.1262379E-14  0.7407407E-01
    1      -20.819608   1.000000
    2       -8.835612   1.000000
    3       -5.602422   1.000000
    4       -5.071743   1.000000
    5        1.998600   0.000000
    6        3.495722   0.000000
    7        7.169721   0.000000
    8        8.294618   0.000000
 
  0.2222222E+00  0.3885781E-15  0.1262379E-14  0.7407407E-01
    1      -19.938517   1.000000
    2       -8.163251   1.000000
    3       -7.785829   1.000000
    4       -6.249099   1.000000
    5        3.212220   0.000000
    6        4.686908   0.000000
    7        6.829369   0.000000
    8        7.002142   0.000000
 
  0.3333333E+00  0.3885781E-15  0.1262379E-14  0.7407407E-01
    1      -18.492631   1.000000
    2      -11.119859   1.000000
    3       -7.288151   1.000000
    4       -6.123199   1.000000
    5        3.636235   0.000000
    6        5.220786   0.000000
    7        6.614231   0.000000
    8        6.724883   0.000000
 
  0.4444444E+00  0.3330669E-15  0.1262379E-14  0.7407407E-01
    1      -16.552102   1.000000
    2      -13.904347   1.000000
    3       -7.861899   1.000000
    4       -4.232069   1.000000
    5        0.866049   0.000000
    6        6.340312   0.000000
    7        8.042323   0.000000
    8        9.446247   0.000000
 
  0.1111111E+00  0.1111111E+00  0.1262379E-14  0.7407407E-01
    1      -20.231271   1.000000
    2       -8.132008   1.000000
    3       -7.159320   1.000000
    4       -6.237367   1.000000
    5        2.808569   0.000000
    6        4.295735   0.000000
    7        7.636698   0.000000
    8        7.794733   0.000000
 
  0.2222222E+00  0.1111111E+00  0.1262379E-14  0.1481481E+00
    1      -19.067766   1.000000
    2       -9.625909   1.000000
    3       -7.640774   1.000000
    4       -6.766016   1.000000
    5        4.423228   0.000000
    6        4.927820   0.000000
    7        5.903913   0.000000
    8        7.984628   0.000000
 
  0.3333333E+00  0.1111111E+00  0.1262379E-14  0.1481481E+00
    1      -17.365762   1.000000
    2      -12.418283   1.000000
    3       -8.531883   1.000000
    4       -4.894681   1.000000
    5        2.009394   0.000000
    6        6.822677   0.000000
    7        7.697102   0.000000
    8        8.219075   0.000000
 
  0.4444444E+00  0.1111111E+00  0.1262379E-14  0.7407407E-01
    1      -15.563953   1.000000
    2      -14.623645   1.000000
    3       -8.835481   1.000000
    4       -3.521562   1.000000
    5        0.236199   0.000000
    6        7.543867   0.000000
    7        9.921017   0.000000
    8       10.075293   0.000000
 
  0.2222222E+00  0.2222222E+00  0.1262379E-14  0.7407407E-01
    1      -17.646306   1.000000
    2      -11.136340   1.000000
    3       -9.692244   1.000000
    4       -5.147268   1.000000
    5        2.662846   0.000000
    6        6.431585   0.000000
    7       10.258044   0.000000
    8       11.292252   0.000000
 
  0.3333333E+00  0.2222222E+00  0.1262379E-14  0.1481481E+00
    1      -15.762509   1.000000
    2      -13.288092   1.000000
    3      -10.695578   1.000000
    4       -3.224445   1.000000
    5        0.368321   0.000000
    6        9.180261   0.000000
    7        9.592278   0.000000
    8       10.408790   0.000000
 
  0.3333333E+00  0.3333333E+00  0.1262379E-14  0.2469136E-01
    1      -14.066189   1.000000
    2      -14.066186   1.000000
    3      -12.178753   1.000000
    4       -1.378237   0.500001
    5       -1.378236   0.499999
    6        9.273102   0.000000
    7       11.604026   0.000000
    8       11.604471   0.000000
