Graphite surface slap                   
   1.00000000000000     
     2.441046    0.000000    0.000000
    -1.220523    2.114008    0.000000
     0.000000    0.000000   10.000000
   C 
     2
Direct
  0.000000  0.000000  0.000000
  0.333333  0.666667  0.000000
 
   24   24  100
 -.15583767943E+02 -.27614289153E+02 -.25793202314E+02 -.26760089095E+02 -.32957745458E+02
 -.31378544288E+02 -.26768909199E+02 -.17113361565E+02 -.12857228153E+02 -.11701647558E+02
 -.15677167610E+02 -.16111434043E+02 -.17878005730E+02 -.16021579174E+02 -.15732374628E+02
 -.11499567081E+02 -.12420082147E+02 -.17035884760E+02 -.26804004878E+02 -.31439751644E+02
 -.32865812136E+02 -.26794128614E+02 -.25745349433E+02 -.27613372654E+02 -.27613372654E+02
 -.29050339590E+02 -.26829029522E+02 -.24988136143E+02 -.31382874107E+02 -.32115569953E+02
 -.29807847411E+02 -.21214424627E+02 -.11701647561E+02 -.63968140708E+01 -.77252016381E+01
 -.83624282714E+01 -.92048655431E+01 -.90613144290E+01 -.86225137149E+01 -.75217695122E+01
 -.66420192596E+01 -.12008649013E+02 -.21551279334E+02 -.29497650094E+02 -.32280732396E+02
 -.31303098048E+02 -.25155162463E+02 -.26996351852E+02 -.25745349432E+02 -.26812023442E+02
 -.24189104381E+02 -.25815101534E+02 -.30276012201E+02 -.32735737067E+02 -.30397415590E+02
 -.24247811994E+02 -.15677167613E+02 -.77252016401E+01 -.50140130256E+01 -.51849157473E+01
 -.44976335217E+01 -.47094799017E+01 -.44662067765E+01 -.50521407494E+01 -.51308734439E+01
 -.76942750602E+01 -.15130735066E+02 -.24045661459E+02 -.30684800424E+02 -.32496819852E+02
 -.30465019435E+02 -.25155162463E+02 -.26794128613E+02 -.24863961029E+02 -.25655869666E+02
 -.27527568749E+02 -.31020675515E+02 -.32443943669E+02 -.31178296690E+02 -.25088704884E+02
 -.16111434045E+02 -.83624282728E+01 -.51849157472E+01 -.48083003578E+01 -.41707748356E+01
 -.38301303435E+01 -.39059417093E+01 -.41828831433E+01 -.49615219377E+01 -.49473233526E+01
 -.84568857775E+01 -.16700788158E+02 -.25182970900E+02 -.31061105282E+02 -.32496819852E+02
 -.31303098047E+02 -.32865812134E+02 -.31375022356E+02 -.30180248568E+02 -.31037256699E+02
 -.32119644824E+02 -.32641747939E+02 -.30443376923E+02 -.25395079131E+02 -.17878005731E+02
 -.92048655447E+01 -.44976335217E+01 -.41707748352E+01 -.35144922371E+01 -.30953935583E+01
 -.30134374352E+01 -.30462748160E+01 -.34421829648E+01 -.41491718874E+01 -.46856086238E+01
 -.90917526425E+01 -.17345799317E+02 -.25182970900E+02 -.30684800423E+02 -.32280732395E+02
 -.31439751641E+02 -.32274121012E+02 -.32720664418E+02 -.32436970045E+02 -.32712329657E+02
 -.31903695397E+02 -.29523189765E+02 -.23966258284E+02 -.16021579174E+02 -.90613144294E+01
 -.47094799017E+01 -.38301303432E+01 -.30953935584E+01 -.24269822749E+01 -.22313337637E+01
 -.22250808673E+01 -.25270797167E+01 -.30788256215E+01 -.38503567959E+01 -.45667559670E+01
 -.90917526420E+01 -.16700788157E+02 -.24045661457E+02 -.29497650092E+02 -.26804004875E+02
 -.29354443216E+02 -.30425555326E+02 -.31054216667E+02 -.30534590349E+02 -.29133528729E+02
 -.26160180478E+02 -.21688012359E+02 -.15732374627E+02 -.86225137148E+01 -.44662067760E+01
 -.39059417088E+01 -.30134374351E+01 -.22313337636E+01 -.19286200442E+01 -.17372635720E+01
 -.18745018741E+01 -.22077172898E+01 -.30376774524E+01 -.38503567957E+01 -.46856086232E+01
 -.84568857760E+01 -.15130735063E+02 -.21551279331E+02 -.17035884755E+02 -.22841146546E+02
 -.27294143959E+02 -.29185028175E+02 -.29295468629E+02 -.27088220006E+02 -.23195707240E+02
 -.17408078198E+02 -.11499567078E+02 -.75217695109E+01 -.50521407487E+01 -.41828831428E+01
 -.30462748159E+01 -.22250808672E+01 -.17372635721E+01 -.15312964962E+01 -.15675219935E+01
 -.17568361018E+01 -.22077172897E+01 -.30788256211E+01 -.41491718869E+01 -.49473233515E+01
 -.76942750583E+01 -.12008649010E+02 -.12420082142E+02 -.18578335439E+02 -.24089437877E+02
 -.27986258667E+02 -.29230075724E+02 -.27986258668E+02 -.24089437878E+02 -.18578335441E+02
 -.12420082144E+02 -.66420192580E+01 -.51308734429E+01 -.49615219371E+01 -.34421829646E+01
 -.25270797167E+01 -.18745018741E+01 -.15675219935E+01 -.13812416967E+01 -.15675219935E+01
 -.18745018739E+01 -.25270797164E+01 -.34421829641E+01 -.49615219367E+01 -.51308734430E+01
 -.66420192567E+01 -.11499567077E+02 -.17408078195E+02 -.23195707239E+02 -.27088220004E+02
 -.29295468628E+02 -.29185028175E+02 -.27294143960E+02 -.22841146547E+02 -.17035884757E+02
 -.12008649012E+02 -.76942750596E+01 -.49473233520E+01 -.41491718871E+01 -.30788256215E+01
 -.22077172899E+01 -.17568361019E+01 -.15675219935E+01 -.15312964962E+01 -.17372635719E+01
 -.22250808670E+01 -.30462748155E+01 -.41828831425E+01 -.50521407482E+01 -.75217695098E+01
 -.15732374625E+02 -.21688012357E+02 -.26160180477E+02 -.29133528729E+02 -.30534590348E+02
 -.31054216667E+02 -.30425555327E+02 -.29354443217E+02 -.26804004876E+02 -.21551279333E+02
 -.15130735066E+02 -.84568857779E+01 -.46856086238E+01 -.38503567959E+01 -.30376774527E+01
 -.22077172900E+01 -.18745018741E+01 -.17372635720E+01 -.19286200441E+01 -.22313337635E+01
 -.30134374347E+01 -.39059417087E+01 -.44662067755E+01 -.86225137127E+01 -.16021579172E+02
 -.23966258282E+02 -.29523189764E+02 -.31903695397E+02 -.32712329657E+02 -.32436970045E+02
 -.32720664418E+02 -.32274121013E+02 -.31439751642E+02 -.29497650093E+02 -.24045661459E+02
 -.16700788159E+02 -.90917526443E+01 -.45667559676E+01 -.38503567960E+01 -.30788256218E+01
 -.25270797168E+01 -.22250808674E+01 -.22313337637E+01 -.24269822749E+01 -.30953935581E+01
 -.38301303431E+01 -.47094799010E+01 -.90613144274E+01 -.17878005728E+02 -.25395079129E+02
 -.30443376922E+02 -.32641747938E+02 -.32119644825E+02 -.31037256699E+02 -.30180248568E+02
 -.31375022355E+02 -.32865812134E+02 -.32280732396E+02 -.30684800424E+02 -.25182970902E+02
 -.17345799320E+02 -.90917526449E+01 -.46856086243E+01 -.41491718875E+01 -.34421829650E+01
 -.30462748161E+01 -.30134374351E+01 -.30953935583E+01 -.35144922369E+01 -.41707748351E+01
 -.44976335212E+01 -.92048655422E+01 -.16111434042E+02 -.25088704881E+02 -.31178296689E+02
 -.32443943669E+02 -.31020675516E+02 -.27527568750E+02 -.25655869666E+02 -.24863961030E+02
 -.26794128612E+02 -.31303098046E+02 -.32496819852E+02 -.31061105283E+02 -.25182970903E+02
 -.16700788161E+02 -.84568857797E+01 -.49473233528E+01 -.49615219378E+01 -.41828831435E+01
 -.39059417093E+01 -.38301303435E+01 -.41707748353E+01 -.48083003576E+01 -.51849157469E+01
 -.83624282709E+01 -.15677167610E+02 -.24247811991E+02 -.30397415588E+02 -.32735737067E+02
 -.30276012203E+02 -.25815101536E+02 -.24189104381E+02 -.26812023441E+02 -.25745349433E+02
 -.25155162462E+02 -.30465019433E+02 -.32496819852E+02 -.30684800425E+02 -.24045661462E+02
 -.15130735069E+02 -.76942750620E+01 -.51308734440E+01 -.50521407496E+01 -.44662067765E+01
 -.47094799018E+01 -.44976335216E+01 -.51849157471E+01 -.50140130255E+01 -.77252016382E+01
 -.11701647558E+02 -.21214424624E+02 -.29807847410E+02 -.32115569953E+02 -.31382874108E+02
 -.24988136144E+02 -.26829029520E+02 -.29050339591E+02 -.27613372654E+02 -.26996351853E+02
 -.25155162462E+02 -.31303098046E+02 -.32280732397E+02 -.29497650096E+02 -.21551279337E+02
 -.12008649016E+02 -.66420192603E+01 -.75217695113E+01 -.86225137150E+01 -.90613144286E+01
 -.92048655435E+01 -.83624282713E+01 -.77252016389E+01 -.63968140703E+01 -.12857228152E+02
 -.17113361563E+02 -.26768909196E+02 -.31378544288E+02 -.32957745457E+02 -.26760089098E+02
 -.25793202311E+02 -.27614289156E+02 -.15583767943E+02 -.27613372651E+02 -.25745349436E+02
 -.26794128610E+02 -.32865812136E+02 -.31439751644E+02 -.26804004881E+02 -.17035884762E+02
 -.12420082149E+02 -.11499567079E+02 -.15732374627E+02 -.16021579174E+02 -.17878005730E+02
 -.16111434043E+02 -.15677167611E+02 -.11701647559E+02 -.17113361563E+02 -.18421178805E+02
 -.23011913822E+02 -.29238173306E+02 -.32353052550E+02 -.31263686026E+02 -.25010874938E+02
 -.26924147661E+02 -.27614289153E+02 -.29050339590E+02 -.26812023445E+02 -.24863961028E+02
 -.31375022355E+02 -.32274121015E+02 -.29354443221E+02 -.22841146554E+02 -.18578335447E+02
 -.17408078201E+02 -.21688012360E+02 -.23966258285E+02 -.25395079131E+02 -.25088704883E+02
 -.24247811992E+02 -.21214424625E+02 -.26768909198E+02 -.23011913823E+02 -.24220300438E+02
 -.27099047148E+02 -.30688049907E+02 -.32468523222E+02 -.30439326803E+02 -.25010874939E+02
 -.25793202313E+02 -.26829029522E+02 -.24189104383E+02 -.25655869665E+02 -.30180248567E+02
 -.32720664420E+02 -.30425555331E+02 -.27294143967E+02 -.24089437886E+02 -.23195707245E+02
 -.26160180480E+02 -.29523189767E+02 -.30443376924E+02 -.31178296690E+02 -.30397415589E+02
 -.29807847411E+02 -.31378544288E+02 -.29238173307E+02 -.27099047149E+02 -.28005545593E+02
 -.29136761810E+02 -.31050275806E+02 -.32468523222E+02 -.31263686026E+02 -.26760089097E+02
 -.24988136144E+02 -.25815101535E+02 -.27527568749E+02 -.31037256700E+02 -.32436970047E+02
 -.31054216672E+02 -.29185028183E+02 -.27986258677E+02 -.27088220012E+02 -.29133528732E+02
 -.31903695399E+02 -.32641747940E+02 -.32443943670E+02 -.32735737068E+02 -.32115569953E+02
 -.32957745458E+02 -.32353052551E+02 -.30688049907E+02 -.29136761811E+02 -.29420163335E+02
 -.29136761811E+02 -.30688049907E+02 -.32353052551E+02 -.32957745458E+02 -.31382874109E+02
 -.30276012203E+02 -.31020675516E+02 -.32119644826E+02 -.32712329659E+02 -.30534590353E+02
 -.29295468636E+02 -.29230075733E+02 -.29295468636E+02 -.30534590352E+02 -.32712329659E+02
 -.32119644826E+02 -.31020675517E+02 -.30276012203E+02 -.31382874108E+02 -.26760089096E+02
 -.31263686025E+02 -.32468523222E+02 -.31050275807E+02 -.29136761811E+02 -.28005545594E+02
 -.27099047149E+02 -.29238173306E+02 -.31378544288E+02 -.32115569953E+02 -.32735737068E+02
 -.32443943670E+02 -.32641747940E+02 -.31903695400E+02 -.29133528733E+02 -.27088220013E+02
 -.27986258677E+02 -.29185028183E+02 -.31054216671E+02 -.32436970047E+02 -.31037256701E+02
 -.27527568750E+02 -.25815101535E+02 -.24988136144E+02 -.25793202314E+02 -.25010874937E+02
 -.30439326801E+02 -.32468523222E+02 -.30688049908E+02 -.27099047149E+02 -.24220300439E+02
 -.23011913823E+02 -.26768909196E+02 -.29807847410E+02 -.30397415589E+02 -.31178296690E+02
 -.30443376925E+02 -.29523189767E+02 -.26160180481E+02 -.23195707246E+02 -.24089437885E+02
 -.27294143966E+02 -.30425555330E+02 -.32720664420E+02 -.30180248569E+02 -.25655869667E+02
 -.24189104382E+02 -.26829029522E+02 -.27614289153E+02 -.26924147662E+02 -.25010874937E+02
 -.31263686024E+02 -.32353052551E+02 -.29238173307E+02 -.23011913824E+02 -.18421178806E+02
 -.17113361563E+02 -.21214424624E+02 -.24247811992E+02 -.25088704882E+02 -.25395079131E+02
 -.23966258285E+02 -.21688012361E+02 -.17408078201E+02 -.18578335446E+02 -.22841146552E+02
 -.29354443220E+02 -.32274121014E+02 -.31375022357E+02 -.24863961030E+02 -.26812023443E+02
 -.29050339591E+02 -.29084557198E+02 -.27829746658E+02 -.24647061046E+02 -.28527065726E+02
 -.32556619275E+02 -.31560446673E+02 -.25692933973E+02 -.16728772497E+02 -.11246434450E+02
 -.11349594358E+02 -.14607812993E+02 -.15745346118E+02 -.16714190027E+02 -.15664672902E+02
 -.14630046156E+02 -.11352204382E+02 -.11236112872E+02 -.16584059106E+02 -.25781498046E+02
 -.31574036242E+02 -.32495567884E+02 -.28551495058E+02 -.24610131256E+02 -.27835525456E+02
 -.27835525456E+02 -.28172095760E+02 -.24835034856E+02 -.26633651513E+02 -.31501239970E+02
 -.32230203784E+02 -.29012258929E+02 -.20703687085E+02 -.11349594361E+02 -.63452422802E+01
 -.72242851806E+01 -.79927301877E+01 -.86177158489E+01 -.86206805371E+01 -.80954732772E+01
 -.71770146592E+01 -.62783150298E+01 -.11426385403E+02 -.20875524717E+02 -.28846922912E+02
 -.32261497172E+02 -.31545651807E+02 -.26680621590E+02 -.24872820458E+02 -.24610131256E+02
 -.24800309107E+02 -.24251098143E+02 -.26817229222E+02 -.31051616355E+02 -.32561154464E+02
 -.30058847649E+02 -.23408634861E+02 -.14607812995E+02 -.72242851824E+01 -.50228752328E+01
 -.49947172063E+01 -.43546809412E+01 -.44847808507E+01 -.43163837135E+01 -.48983791305E+01
 -.51142661360E+01 -.73335737421E+01 -.14402651973E+02 -.23329149588E+02 -.30220987986E+02
 -.32488377993E+02 -.31009860555E+02 -.26680621590E+02 -.28551495058E+02 -.26531865038E+02
 -.26679135163E+02 -.28768235780E+02 -.31386319746E+02 -.32457980414E+02 -.30692067434E+02
 -.24495698080E+02 -.15745346120E+02 -.79927301891E+01 -.49947172061E+01 -.47366056948E+01
 -.40669565541E+01 -.37832231310E+01 -.38310138189E+01 -.40992249315E+01 -.48351249173E+01
 -.48021644633E+01 -.79858531099E+01 -.15946036072E+02 -.24511375186E+02 -.30608366705E+02
 -.32488377992E+02 -.31545651807E+02 -.32495567883E+02 -.31457057448E+02 -.30963983062E+02
 -.31372060597E+02 -.32358892859E+02 -.32433170923E+02 -.30037739736E+02 -.24634678458E+02
 -.16714190029E+02 -.86177158503E+01 -.43546809412E+01 -.40669565537E+01 -.33758879524E+01
 -.29723747986E+01 -.28992805012E+01 -.29228629799E+01 -.33263507877E+01 -.40514275925E+01
 -.45236185642E+01 -.85658951203E+01 -.16595892379E+02 -.24511375186E+02 -.30220987985E+02
 -.32261497171E+02 -.31574036240E+02 -.32463957670E+02 -.32601277633E+02 -.32524335864E+02
 -.32566549744E+02 -.31565074757E+02 -.28951572928E+02 -.23337075275E+02 -.15664672902E+02
 -.86206805377E+01 -.44847808506E+01 -.37832231307E+01 -.29723747987E+01 -.23800753205E+01
 -.21383460540E+01 -.21785300652E+01 -.24246935557E+01 -.29875738016E+01 -.37613288020E+01
 -.44011928115E+01 -.85658951198E+01 -.15946036070E+02 -.23329149586E+02 -.28846922910E+02
 -.25781498043E+02 -.28581534829E+02 -.30066361925E+02 -.30539821257E+02 -.30091576952E+02
 -.28598603167E+02 -.25639135022E+02 -.20798170674E+02 -.14630046155E+02 -.80954732769E+01
 -.43163837131E+01 -.38310138184E+01 -.28992805012E+01 -.21383460539E+01 -.18607476989E+01
 -.16482226757E+01 -.18160122994E+01 -.21133874066E+01 -.29399669393E+01 -.37613288018E+01
 -.45236185636E+01 -.79858531085E+01 -.14402651970E+02 -.20875524715E+02 -.16584059102E+02
 -.22060058964E+02 -.26187051961E+02 -.28215609820E+02 -.28261349824E+02 -.26098763438E+02
 -.22127806364E+02 -.16697021751E+02 -.11352204380E+02 -.71770146580E+01 -.48983791298E+01
 -.40992249311E+01 -.29228629798E+01 -.21785300651E+01 -.16482226758E+01 -.15031178183E+01
 -.14817112028E+01 -.17165712465E+01 -.21133874066E+01 -.29875738013E+01 -.40514275920E+01
 -.48021644623E+01 -.73335737403E+01 -.11426385400E+02 -.11236112867E+02 -.17365354062E+02
 -.22907508243E+02 -.26631810350E+02 -.27894244914E+02 -.26631810351E+02 -.22907508245E+02
 -.17365354064E+02 -.11236112869E+02 -.62783150282E+01 -.51142661350E+01 -.48351249167E+01
 -.33263507875E+01 -.24246935556E+01 -.18160122994E+01 -.14817112028E+01 -.13392726508E+01
 -.14817112027E+01 -.18160122992E+01 -.24246935554E+01 -.33263507871E+01 -.48351249164E+01
 -.51142661350E+01 -.62783150272E+01 -.11352204378E+02 -.16697021749E+02 -.22127806363E+02
 -.26098763437E+02 -.28261349823E+02 -.28215609821E+02 -.26187051962E+02 -.22060058966E+02
 -.16584059104E+02 -.11426385402E+02 -.73335737414E+01 -.48021644627E+01 -.40514275922E+01
 -.29875738017E+01 -.21133874067E+01 -.17165712466E+01 -.14817112028E+01 -.15031178184E+01
 -.16482226756E+01 -.21785300649E+01 -.29228629794E+01 -.40992249308E+01 -.48983791294E+01
 -.71770146569E+01 -.14630046152E+02 -.20798170672E+02 -.25639135021E+02 -.28598603166E+02
 -.30091576952E+02 -.30539821257E+02 -.30066361926E+02 -.28581534829E+02 -.25781498044E+02
 -.20875524717E+02 -.14402651973E+02 -.79858531103E+01 -.45236185641E+01 -.37613288020E+01
 -.29399669396E+01 -.21133874068E+01 -.18160122994E+01 -.16482226757E+01 -.18607476988E+01
 -.21383460538E+01 -.28992805008E+01 -.38310138183E+01 -.43163837126E+01 -.80954732750E+01
 -.15664672900E+02 -.23337075272E+02 -.28951572927E+02 -.31565074757E+02 -.32566549744E+02
 -.32524335864E+02 -.32601277633E+02 -.32463957670E+02 -.31574036240E+02 -.28846922911E+02
 -.23329149588E+02 -.15946036073E+02 -.85658951219E+01 -.44011928121E+01 -.37613288021E+01
 -.29875738020E+01 -.24246935558E+01 -.21785300653E+01 -.21383460539E+01 -.23800753205E+01
 -.29723747984E+01 -.37832231306E+01 -.44847808500E+01 -.86206805357E+01 -.16714190026E+02
 -.24634678456E+02 -.30037739734E+02 -.32433170923E+02 -.32358892859E+02 -.31372060597E+02
 -.30963983062E+02 -.31457057448E+02 -.32495567882E+02 -.32261497171E+02 -.30220987986E+02
 -.24511375188E+02 -.16595892382E+02 -.85658951225E+01 -.45236185646E+01 -.40514275926E+01
 -.33263507880E+01 -.29228629800E+01 -.28992805012E+01 -.29723747985E+01 -.33758879521E+01
 -.40669565537E+01 -.43546809407E+01 -.86177158481E+01 -.15745346118E+02 -.24495698077E+02
 -.30692067433E+02 -.32457980414E+02 -.31386319746E+02 -.28768235781E+02 -.26679135163E+02
 -.26531865038E+02 -.28551495057E+02 -.31545651806E+02 -.32488377992E+02 -.30608366706E+02
 -.24511375189E+02 -.15946036075E+02 -.79858531119E+01 -.48021644635E+01 -.48351249174E+01
 -.40992249318E+01 -.38310138188E+01 -.37832231310E+01 -.40669565539E+01 -.47366056947E+01
 -.49947172058E+01 -.79927301873E+01 -.14607812993E+02 -.23408634858E+02 -.30058847647E+02
 -.32561154464E+02 -.31051616357E+02 -.26817229223E+02 -.24251098143E+02 -.24800309107E+02
 -.24610131256E+02 -.26680621589E+02 -.31009860554E+02 -.32488377993E+02 -.30220987987E+02
 -.23329149591E+02 -.14402651976E+02 -.73335737437E+01 -.51142661360E+01 -.48983791308E+01
 -.43163837136E+01 -.44847808507E+01 -.43546809412E+01 -.49947172061E+01 -.50228752328E+01
 -.72242851807E+01 -.11349594358E+02 -.20703687082E+02 -.29012258927E+02 -.32230203784E+02
 -.31501239971E+02 -.26633651515E+02 -.24835034855E+02 -.28172095760E+02 -.27835525457E+02
 -.24872820459E+02 -.26680621588E+02 -.31545651806E+02 -.32261497173E+02 -.28846922914E+02
 -.20875524721E+02 -.11426385406E+02 -.62783150303E+01 -.71770146586E+01 -.80954732771E+01
 -.86206805369E+01 -.86177158492E+01 -.79927301878E+01 -.72242851812E+01 -.63452422797E+01
 -.11246434449E+02 -.16728772494E+02 -.25692933970E+02 -.31560446672E+02 -.32556619276E+02
 -.28527065728E+02 -.24647061046E+02 -.27829746657E+02 -.29084557198E+02 -.27835525457E+02
 -.24610131256E+02 -.28551495056E+02 -.32495567883E+02 -.31574036243E+02 -.25781498049E+02
 -.16584059109E+02 -.11236112873E+02 -.11352204381E+02 -.14630046155E+02 -.15664672902E+02
 -.16714190027E+02 -.15745346119E+02 -.14607812993E+02 -.11349594359E+02 -.16728772495E+02
 -.17260319885E+02 -.22109626217E+02 -.28601892636E+02 -.32386397804E+02 -.31505015676E+02
 -.26545169631E+02 -.24816764425E+02 -.27829746657E+02 -.28172095761E+02 -.24800309108E+02
 -.26531865037E+02 -.31457057449E+02 -.32463957672E+02 -.28581534834E+02 -.22060058973E+02
 -.17365354070E+02 -.16697021754E+02 -.20798170675E+02 -.23337075275E+02 -.24634678458E+02
 -.24495698079E+02 -.23408634859E+02 -.20703687083E+02 -.25692933971E+02 -.22109626218E+02
 -.22944557791E+02 -.26110084855E+02 -.30196396855E+02 -.32527139363E+02 -.30972601889E+02
 -.26545169631E+02 -.24647061047E+02 -.24835034856E+02 -.24251098143E+02 -.26679135162E+02
 -.30963983063E+02 -.32601277635E+02 -.30066361930E+02 -.26187051969E+02 -.22907508252E+02
 -.22127806369E+02 -.25639135024E+02 -.28951572930E+02 -.30037739736E+02 -.30692067435E+02
 -.30058847649E+02 -.29012258928E+02 -.31560446673E+02 -.28601892637E+02 -.26110084855E+02
 -.26651540690E+02 -.28137344746E+02 -.30563626971E+02 -.32527139363E+02 -.31505015676E+02
 -.28527065728E+02 -.26633651514E+02 -.26817229222E+02 -.28768235780E+02 -.31372060598E+02
 -.32524335866E+02 -.30539821262E+02 -.28215609828E+02 -.26631810359E+02 -.26098763445E+02
 -.28598603169E+02 -.31565074759E+02 -.32433170925E+02 -.32457980415E+02 -.32561154465E+02
 -.32230203784E+02 -.32556619276E+02 -.32386397804E+02 -.30196396856E+02 -.28137344747E+02
 -.28073954159E+02 -.28137344747E+02 -.30196396855E+02 -.32386397804E+02 -.32556619276E+02
 -.31501239971E+02 -.31051616357E+02 -.31386319747E+02 -.32358892860E+02 -.32566549746E+02
 -.30091576957E+02 -.28261349831E+02 -.27894244923E+02 -.28261349831E+02 -.30091576956E+02
 -.32566549746E+02 -.32358892861E+02 -.31386319747E+02 -.31051616357E+02 -.31501239971E+02
 -.28527065727E+02 -.31505015675E+02 -.32527139363E+02 -.30563626971E+02 -.28137344747E+02
 -.26651540690E+02 -.26110084855E+02 -.28601892636E+02 -.31560446672E+02 -.32230203784E+02
 -.32561154465E+02 -.32457980415E+02 -.32433170925E+02 -.31565074760E+02 -.28598603170E+02
 -.26098763445E+02 -.26631810359E+02 -.28215609828E+02 -.30539821261E+02 -.32524335866E+02
 -.31372060598E+02 -.28768235781E+02 -.26817229223E+02 -.26633651514E+02 -.24647061047E+02
 -.26545169629E+02 -.30972601888E+02 -.32527139363E+02 -.30196396856E+02 -.26110084856E+02
 -.22944557792E+02 -.22109626217E+02 -.25692933970E+02 -.29012258927E+02 -.30058847648E+02
 -.30692067435E+02 -.30037739737E+02 -.28951572930E+02 -.25639135025E+02 -.22127806370E+02
 -.22907508251E+02 -.26187051968E+02 -.30066361929E+02 -.32601277635E+02 -.30963983064E+02
 -.26679135163E+02 -.24251098144E+02 -.24835034856E+02 -.27829746658E+02 -.24816764425E+02
 -.26545169629E+02 -.31505015674E+02 -.32386397805E+02 -.28601892638E+02 -.22109626219E+02
 -.17260319886E+02 -.16728772494E+02 -.20703687082E+02 -.23408634859E+02 -.24495698079E+02
 -.24634678458E+02 -.23337075276E+02 -.20798170677E+02 -.16697021754E+02 -.17365354069E+02
 -.22060058971E+02 -.28581534832E+02 -.32463957672E+02 -.31457057450E+02 -.26531865039E+02
 -.24800309107E+02 -.28172095761E+02 -.26022397738E+02 -.24910362282E+02 -.26815872927E+02
 -.31022924448E+02 -.32569119478E+02 -.30513764627E+02 -.23481734984E+02 -.14621933252E+02
 -.88880050065E+01 -.98104700225E+01 -.12455062241E+02 -.13767173138E+02 -.14458242038E+02
 -.13758414378E+02 -.12519174613E+02 -.98979889611E+01 -.89730667056E+01 -.14447321557E+02
 -.23625557301E+02 -.30480697272E+02 -.32577378860E+02 -.31031340891E+02 -.26803158192E+02
 -.24926379255E+02 -.24926379254E+02 -.24879955839E+02 -.25869940457E+02 -.29707836296E+02
 -.32375643388E+02 -.31757069173E+02 -.26928931306E+02 -.18644343156E+02 -.98104700252E+01
 -.56646012262E+01 -.62521680564E+01 -.67249732889E+01 -.71564106947E+01 -.71982957582E+01
 -.66972121298E+01 -.62247916709E+01 -.54871207244E+01 -.98806019180E+01 -.18714991360E+02
 -.26817224174E+02 -.31776232064E+02 -.32371072123E+02 -.29731311074E+02 -.25856045912E+02
 -.26803158192E+02 -.25805289664E+02 -.26851496816E+02 -.29748189385E+02 -.32186546460E+02
 -.32283696810E+02 -.28445930898E+02 -.21084626825E+02 -.12455062244E+02 -.62521680575E+01
 -.49233808239E+01 -.45811118589E+01 -.39810739066E+01 -.40228444160E+01 -.39728688032E+01
 -.45571688242E+01 -.50449881850E+01 -.63539534341E+01 -.12357037535E+02 -.21069394136E+02
 -.28538354529E+02 -.32258263392E+02 -.32188119484E+02 -.29731311074E+02 -.31031340891E+02
 -.29645274736E+02 -.29660231787E+02 -.30921290202E+02 -.32381476295E+02 -.32278353340E+02
 -.29100532517E+02 -.22338829007E+02 -.13767173140E+02 -.67249732901E+01 -.45811118585E+01
 -.44531797257E+01 -.37599838049E+01 -.35834226840E+01 -.35705643898E+01 -.38069249968E+01
 -.44236683911E+01 -.44571727287E+01 -.66822175127E+01 -.13861219483E+02 -.22303463346E+02
 -.29078315009E+02 -.32258263392E+02 -.32371072122E+02 -.32577378859E+02 -.32266061763E+02
 -.32124683215E+02 -.32301535400E+02 -.32716897093E+02 -.31682033106E+02 -.28488528579E+02
 -.22343390677E+02 -.14458242040E+02 -.71564106958E+01 -.39810739065E+01 -.37599838048E+01
 -.29552483905E+01 -.26758537319E+01 -.25397278873E+01 -.26429915754E+01 -.29492436253E+01
 -.38017583961E+01 -.40894222984E+01 -.71440856468E+01 -.14434999785E+02 -.22303463346E+02
 -.28538354528E+02 -.31776232063E+02 -.30480697270E+02 -.32077236251E+02 -.32477340810E+02
 -.32469449057E+02 -.31970046924E+02 -.30412808529E+02 -.27000831810E+02 -.21029610581E+02
 -.13758414378E+02 -.71982957586E+01 -.40228444157E+01 -.35834226838E+01 -.26758537321E+01
 -.21765652934E+01 -.19207517554E+01 -.19671048425E+01 -.21860441532E+01 -.26641379476E+01
 -.35327363121E+01 -.39819667456E+01 -.71440856464E+01 -.13861219482E+02 -.21069394135E+02
 -.26817224171E+02 -.23625557298E+02 -.26693349427E+02 -.28498565748E+02 -.28986507490E+02
 -.28552574836E+02 -.26786736494E+02 -.23578194361E+02 -.18568610923E+02 -.12519174612E+02
 -.66972121295E+01 -.39728688026E+01 -.35705643894E+01 -.25397278873E+01 -.19207517553E+01
 -.16165826746E+01 -.14643228672E+01 -.15858879199E+01 -.19132850007E+01 -.25956916867E+01
 -.35327363119E+01 -.40894222979E+01 -.66822175115E+01 -.12357037532E+02 -.18714991357E+02
 -.14447321554E+02 -.19329439576E+02 -.23056991988E+02 -.25067723619E+02 -.25041463789E+02
 -.23014793024E+02 -.19301012078E+02 -.14527502846E+02 -.98979889592E+01 -.62247916699E+01
 -.45571688235E+01 -.38069249964E+01 -.26429915753E+01 -.19671048425E+01 -.14643228672E+01
 -.13316323807E+01 -.13090517642E+01 -.15154846803E+01 -.19132850006E+01 -.26641379473E+01
 -.38017583956E+01 -.44571727278E+01 -.63539534324E+01 -.98806019155E+01 -.89730667012E+01
 -.14317116178E+02 -.19465705840E+02 -.22964148337E+02 -.24183922499E+02 -.22964148338E+02
 -.19465705841E+02 -.14317116180E+02 -.89730667028E+01 -.54871207230E+01 -.50449881841E+01
 -.44236683907E+01 -.29492436252E+01 -.21860441530E+01 -.15858879199E+01 -.13090517642E+01
 -.11525920514E+01 -.13090517641E+01 -.15858879197E+01 -.21860441528E+01 -.29492436248E+01
 -.44236683902E+01 -.50449881842E+01 -.54871207224E+01 -.98979889578E+01 -.14527502845E+02
 -.19301012076E+02 -.23014793023E+02 -.25041463789E+02 -.25067723619E+02 -.23056991989E+02
 -.19329439578E+02 -.14447321555E+02 -.98806019168E+01 -.63539534334E+01 -.44571727281E+01
 -.38017583959E+01 -.26641379477E+01 -.19132850008E+01 -.15154846804E+01 -.13090517642E+01
 -.13316323807E+01 -.14643228671E+01 -.19671048423E+01 -.26429915750E+01 -.38069249961E+01
 -.45571688232E+01 -.62247916689E+01 -.12519174610E+02 -.18568610921E+02 -.23578194359E+02
 -.26786736493E+02 -.28552574836E+02 -.28986507490E+02 -.28498565748E+02 -.26693349428E+02
 -.23625557300E+02 -.18714991359E+02 -.12357037534E+02 -.66822175129E+01 -.40894222982E+01
 -.35327363122E+01 -.25956916870E+01 -.19132850009E+01 -.15858879199E+01 -.14643228672E+01
 -.16165826745E+01 -.19207517552E+01 -.25397278870E+01 -.35705643892E+01 -.39728688023E+01
 -.66972121279E+01 -.13758414376E+02 -.21029610578E+02 -.27000831809E+02 -.30412808528E+02
 -.31970046924E+02 -.32469449056E+02 -.32477340810E+02 -.32077236252E+02 -.30480697271E+02
 -.26817224173E+02 -.21069394137E+02 -.13861219484E+02 -.71440856481E+01 -.39819667460E+01
 -.35327363123E+01 -.26641379479E+01 -.21860441532E+01 -.19671048426E+01 -.19207517553E+01
 -.21765652934E+01 -.26758537318E+01 -.35834226837E+01 -.40228444153E+01 -.71982957569E+01
 -.14458242037E+02 -.22343390675E+02 -.28488528577E+02 -.31682033105E+02 -.32716897093E+02
 -.32301535401E+02 -.32124683215E+02 -.32266061763E+02 -.32577378859E+02 -.31776232064E+02
 -.28538354530E+02 -.22303463348E+02 -.14434999787E+02 -.71440856487E+01 -.40894222986E+01
 -.38017583963E+01 -.29492436256E+01 -.26429915755E+01 -.25397278873E+01 -.26758537319E+01
 -.29552483903E+01 -.37599838046E+01 -.39810739062E+01 -.71564106939E+01 -.13767173137E+02
 -.22338829005E+02 -.29100532515E+02 -.32278353339E+02 -.32381476296E+02 -.30921290203E+02
 -.29660231787E+02 -.29645274736E+02 -.31031340890E+02 -.32371072122E+02 -.32258263392E+02
 -.29078315011E+02 -.22303463349E+02 -.13861219486E+02 -.66822175144E+01 -.44571727287E+01
 -.44236683913E+01 -.38069249970E+01 -.35705643898E+01 -.35834226840E+01 -.37599838048E+01
 -.44531797255E+01 -.45811118584E+01 -.67249732885E+01 -.12455062241E+02 -.21084626822E+02
 -.28445930897E+02 -.32283696810E+02 -.32186546461E+02 -.29748189386E+02 -.26851496817E+02
 -.25805289664E+02 -.26803158191E+02 -.29731311073E+02 -.32188119483E+02 -.32258263393E+02
 -.28538354531E+02 -.21069394139E+02 -.12357037537E+02 -.63539534352E+01 -.50449881850E+01
 -.45571688245E+01 -.39728688032E+01 -.40228444160E+01 -.39810739066E+01 -.45811118587E+01
 -.49233808239E+01 -.62521680564E+01 -.98104700228E+01 -.18644343153E+02 -.26928931304E+02
 -.31757069172E+02 -.32375643388E+02 -.29707836298E+02 -.25869940458E+02 -.24879955839E+02
 -.24926379254E+02 -.25856045911E+02 -.29731311073E+02 -.32371072122E+02 -.31776232065E+02
 -.26817224176E+02 -.18714991363E+02 -.98806019205E+01 -.54871207247E+01 -.62247916706E+01
 -.66972121297E+01 -.71982957580E+01 -.71564106949E+01 -.67249732890E+01 -.62521680567E+01
 -.56646012259E+01 -.88880050057E+01 -.14621933250E+02 -.23481734981E+02 -.30513764625E+02
 -.32569119478E+02 -.31022924449E+02 -.26815872928E+02 -.24910362282E+02 -.26022397738E+02
 -.24926379255E+02 -.26803158191E+02 -.31031340890E+02 -.32577378860E+02 -.30480697274E+02
 -.23625557304E+02 -.14447321560E+02 -.89730667062E+01 -.98979889602E+01 -.12519174613E+02
 -.13758414378E+02 -.14458242038E+02 -.13767173138E+02 -.12455062242E+02 -.98104700235E+01
 -.14621933251E+02 -.14219771010E+02 -.19359259273E+02 -.26748614744E+02 -.32010636850E+02
 -.32333466771E+02 -.29622881054E+02 -.25829473652E+02 -.24910362282E+02 -.24879955840E+02
 -.25805289663E+02 -.29645274735E+02 -.32266061764E+02 -.32077236254E+02 -.26693349433E+02
 -.19329439584E+02 -.14317116186E+02 -.14527502849E+02 -.18568610924E+02 -.21029610581E+02
 -.22343390677E+02 -.22338829006E+02 -.21084626823E+02 -.18644343154E+02 -.23481734982E+02
 -.19359259275E+02 -.19446186239E+02 -.23033673489E+02 -.28532843596E+02 -.32441768362E+02
 -.32123651729E+02 -.29622881054E+02 -.26815872928E+02 -.25869940457E+02 -.26851496816E+02
 -.29660231787E+02 -.32124683216E+02 -.32477340813E+02 -.28498565753E+02 -.23056991996E+02
 -.19465705848E+02 -.19301012082E+02 -.23578194362E+02 -.27000831812E+02 -.28488528579E+02
 -.29100532517E+02 -.28445930898E+02 -.26928931305E+02 -.30513764626E+02 -.26748614746E+02
 -.23033673490E+02 -.22994795414E+02 -.24998730339E+02 -.29057508117E+02 -.32441768362E+02
 -.32333466771E+02 -.31022924449E+02 -.29707836297E+02 -.29748189386E+02 -.30921290203E+02
 -.32301535402E+02 -.32469449059E+02 -.28986507494E+02 -.25067723627E+02 -.22964148346E+02
 -.23014793030E+02 -.26786736496E+02 -.30412808530E+02 -.31682033107E+02 -.32278353341E+02