<preamble>

<basis_specs>
===============================================================================
O                    Z=   8    Mass=  15.999        Charge=-0.28000    
Lmxo=2 Lmxkb= 2    BasisType=split      Semic=F
L=0  Nsemic=0  Cnfigmx=2
          i=1  nzeta=2  polorb=0  (2s)
            splnorm:   0.15000    
               vcte:    40.580    
               rinn:    3.9500    
               qcoe:    0.0000    
               qyuk:    0.0000    
               qwid:   0.10000E-01
                rcs:    4.9571      3.6041    
            lambdas:    1.0000      1.0000    
L=1  Nsemic=0  Cnfigmx=2
          i=1  nzeta=2  polorb=0  (2p)
            splnorm:   0.15000    
               vcte:    36.780    
               rinn:    4.3500    
               qcoe:    0.0000    
               qyuk:    0.0000    
               qwid:   0.10000E-01
                rcs:    5.0070      3.8972    
            lambdas:    1.0000      1.0000    
L=2  Nsemic=0  Cnfigmx=3
          i=1  nzeta=1  polorb=0  (3d)
            splnorm:   0.15000    
               vcte:    21.690    
               rinn:   0.93000    
               qcoe:    0.0000    
               qyuk:    0.0000    
               qwid:   0.10000E-01
                rcs:    2.7324    
            lambdas:    1.0000    
-------------------------------------------------------------------------------
L=0  Nkbl=1  erefs: 0.17977+309
L=1  Nkbl=1  erefs: 0.17977+309
L=2  Nkbl=1  erefs: 0.17977+309
===============================================================================
</basis_specs>

<pseudopotential_header>
 O  pb rel pcec
 ONCVPSP-3.2018-04-23Hamann's oncvpsp                        
 2s 2.00r r= 1.36/2p 4.00r r= 1.46/3d 0.00r r= 1.26/                    2s:2p:
</pseudopotential_header>
</preamble>
O                             # Symbol
O                             # Label
    8                         # Atomic number
     6.00000000000                             # Valence charge
     15.9990000000        # Mass 
     48.1905903912        # Self energy 
   2   5                      # Lmax for basis, no. of nl orbitals 
   2   6                      # Lmax for projectors, no. of nl KB projectors
# PAOs:__________________________
  0  2  1  0  2.000000   #orbital l, n, z, is_polarized, population
 500    0.9934004880229781E-02     4.957068435234661     # npts, delta, cutoff
     0.000000000000000         1.295090525139838    
    0.9934004880229781E-02     1.295118016834677    
    0.1986800976045956E-01     1.295239153990753    
    0.2980201464068934E-01     1.295440630962235    
    0.3973601952091912E-01     1.295721792344710    
    0.4967002440114891E-01     1.296081702092686    
    0.5960402928137869E-01     1.296519121088112    
    0.6953803416160848E-01     1.297032483549146    
    0.7947203904183825E-01     1.297619872287734    
    0.8940604392206802E-01     1.298278994245684    
    0.9934004880229781E-01     1.299007157725635    
    0.1092740536825276         1.299801252509089    
    0.1192080585627574         1.300657733759677    
    0.1291420634429871         1.301572610301499    
    0.1390760683232170         1.302541437574736    
    0.1490100732034467         1.303559315326200    
    0.1589440780836765         1.304620889902226    
    0.1688780829639063         1.305720360877400    
    0.1788120878441360         1.306851491670483    
    0.1887460927243658         1.308007623760025    
    0.1986800976045956         1.309181694106547    
    0.2086141024848254         1.310366255405502    
    0.2185481073650552         1.311553498826542    
    0.2284821122452850         1.312735278932610    
    0.2384161171255147         1.313903140511470    
    0.2483501220057445         1.315048347088753    
    0.2582841268859743         1.316161910923394    
    0.2682181317662041         1.317234624312415    
    0.2781521366464339         1.318257092052521    
    0.2880861415266637         1.319219764921681    
    0.2980201464068934         1.320112974055847    
    0.3079541512871232         1.320926966105535    
    0.3178881561673530         1.321651939065195    
    0.3278221610475828         1.322278078676086    
    0.3377561659278125         1.322795595310614    
    0.3476901708080423         1.323194761252425    
    0.3576241756882721         1.323465948290208    
    0.3675581805685019         1.323599665541799    
    0.3774921854487317         1.323586597415578    
    0.3874261903289615         1.323417641594765    
    0.3973601952091912         1.323083946893783    
    0.4072942000894210         1.322576950782220    
    0.4172282049696508         1.321888416301001    
    0.4271622098498806         1.321010468010114    
    0.4370962147301104         1.319935626514376    
    0.4470302196103402         1.318656841024027    
    0.4569642244905699         1.317167519334580    
    0.4668982293707997         1.315461554571449    
    0.4768322342510295         1.313533348055164    
    0.4867662391312593         1.311377827714138    
    0.4967002440114890         1.308990461608829    
    0.5066342488917188         1.306367266328491    
    0.5165682537719486         1.303504810263452    
    0.5265022586521784         1.300400212015983    
    0.5364362635324081         1.297051134459180    
    0.5463702684126379         1.293455775153245    
    0.5563042732928678         1.289612853955265    
    0.5662382781730976         1.285521598696813    
    0.5761722830533273         1.281181729752349    
    0.5861062879335571         1.276593444194075    
    0.5960402928137869         1.271757400049764    
    0.6059742976940167         1.266674700978525    
    0.6159083025742464         1.261346881485071    
    0.6258423074544762         1.255775892628436    
    0.6357763123347060         1.249964088061871    
    0.6457103172149358         1.243914210172097    
    0.6556443220951655         1.237629376066145    
    0.6655783269753953         1.231113063174736    
    0.6755123318556251         1.224369094291255    
    0.6854463367358549         1.217401621933184    
    0.6953803416160846         1.210215111986915    
    0.7053143464963144         1.202814326668189    
    0.7152483513765442         1.195204306891963    
    0.7251823562567741         1.187390354192944    
    0.7351163611370038         1.179378012333997    
    0.7450503660172336         1.171173071000778    
    0.7549843708974634         1.162781480694081    
    0.7649183757776932         1.154209401863979    
    0.7748523806579229         1.145463164734907    
    0.7847863855381527         1.136549252156477    
    0.7947203904183825         1.127474283130562    
    0.8046543952986123         1.118244997034055    
    0.8145884001788420         1.108868238566173    
    0.8245224050590718         1.099350943422620    
    0.8344564099393016         1.089700124676751    
    0.8443904148195314         1.079922859830763    
    0.8543244196997611         1.070026278487552    
    0.8642584245799909         1.060017550586237    
    0.8741924294602208         1.049903875140499    
    0.8841264343404506         1.039692469418435    
    0.8940604392206803         1.029390558504651    
    0.9039944441009101         1.019005365189323    
    0.9139284489811399         1.008544100134100    
    0.9238624538613697        0.9980139522707444    
    0.9337964587415994        0.9874220793946303    
    0.9437304636218292        0.9767755989215747    
    0.9536644685020590        0.9660815787825348    
    0.9635984733822888        0.9553470284364491    
    0.9735324782625185        0.9445788899867837    
    0.9834664831427483        0.9337840293921539    
    0.9934004880229781        0.9229692277657120    
     1.003334492903208        0.9121411727618800    
     1.013268497783438        0.9013064500524349    
     1.023202502663668        0.8904715348970628    
     1.033136507543897        0.8796427838162468    
     1.043070512424127        0.8688264263768295    
     1.053004517304357        0.8580285571028584    
     1.062938522184587        0.8472551275263441    
     1.072872527064816        0.8365119383944395    
     1.082806531945046        0.8258046320512409    
     1.092740536825276        0.8151386850139976    
     1.102674541705506        0.8045194007648911    
     1.112608546585736        0.7939519027808636    
     1.122542551465965        0.7834411278250731    
     1.132476556346195        0.7729918195245353    
     1.142410561226425        0.7626085222593325    
     1.152344566106655        0.7522955753893713    
     1.162278570986884        0.7420571078451392    
     1.172212575867114        0.7318970328181693    
     1.182146580747344        0.7218190395726629    
     1.192080585627574        0.7118265937655374    
     1.202014590507803        0.7019229340557451    
     1.211948595388033        0.6921110682164757    
     1.221882600268263        0.6823937704529791    
     1.231816605148493        0.6727735792626297    
     1.241750610028723        0.6632527958585771    
     1.251684614908952        0.6538334831764744    
     1.261618619789182        0.6445174654816282    
     1.271552624669412        0.6353063285914924    
     1.281486629549642        0.6262014207257344    
     1.291420634429872        0.6172038539931280    
     1.301354639310101        0.6083145065217802    
     1.311288644190331        0.5995340252269828    
     1.321222649070561        0.5908628290014265    
     1.331156653950791        0.5823011136823915    
     1.341090658831021        0.5738488574378173    
     1.351024663711250        0.5655058181197757    
     1.360958668591480        0.5572715490232096    
     1.370892673471710        0.5491454517344750    
     1.380826678351940        0.5411268401048678    
     1.390760683232169        0.5332149880982769    
     1.400694688112399        0.5254091364463273    
     1.410628692992629        0.5177084869760178    
     1.420562697872859        0.5101122071099512    
     1.430496702753088        0.5026194335367543    
     1.440430707633318        0.4952292744044403    
     1.450364712513548        0.4879408118004209    
     1.460298717393778        0.4807531043735436    
     1.470232722274008        0.4736651901379781    
     1.480166727154237        0.4666760895807097    
     1.490100732034467        0.4597848087275498    
     1.500034736914697        0.4529903411395201    
     1.509968741794927        0.4462916692110305    
     1.519902746675156        0.4396877656775240    
     1.529836751555386        0.4331775951391323    
     1.539770756435616        0.4267601154127273    
     1.549704761315846        0.4204342788014939    
     1.559638766196076        0.4141990332961855    
     1.569572771076305        0.4080533237021519    
     1.579506775956535        0.4019960926957817    
     1.589440780836765        0.3960262818144445    
     1.599374785716995        0.3901428323831109    
     1.609308790597225        0.3843446863807214    
     1.619242795477454        0.3786307872492911    
     1.629176800357684        0.3730000806486091    
     1.639110805237914        0.3674515151593127    
     1.649044810118144        0.3619840429369208    
     1.658978814998374        0.3565966203194974    
     1.668912819878603        0.3512882083923823    
     1.678846824758833        0.3460577735108539    
     1.688780829639063        0.3409042877787374    
     1.698714834519293        0.3358267294937397    
     1.708648839399522        0.3308240835740465    
     1.718582844279752        0.3258953419510202    
     1.728516849159982        0.3210395039104810    
     1.738450854040212        0.3162555763940585    
     1.748384858920442        0.3115425742692017    
     1.758318863800671        0.3068995205808830    
     1.768252868680901        0.3023254468092757    
     1.778186873561131        0.2978193931192913    
     1.788120878441361        0.2933804085695284    
     1.798054883321590        0.2890075512855256    
     1.807988888201820        0.2846998886178955    
     1.817922893082050        0.2804564972875541    
     1.827856897962280        0.2762764635131220    
     1.837790902842509        0.2721588831214898    
     1.847724907722739        0.2681028616436204    
     1.857658912602969        0.2641075143963677    
     1.867592917483199        0.2601719665510804    
     1.877526922363429        0.2562953531898070    
     1.887460927243658        0.2524768193498602    
     1.897394932123888        0.2487155200574676    
     1.907328937004118        0.2450106203511889    
     1.917262941884348        0.2413612952957476    
     1.927196946764578        0.2377667299868901    
     1.937130951644807        0.2342261195478518    
     1.947064956525037        0.2307386691179797    
     1.956998961405267        0.2273035938340288    
     1.966932966285497        0.2239201188046265    
     1.976866971165727        0.2205874790783671    
     1.986800976045956        0.2173049196059798    
     1.996734980926186        0.2140716951969815    
     2.006668985806416        0.2108870704712106    
     2.016602990686645        0.2077503198056146    
     2.026536995566875        0.2046607272766390    
     2.036471000447105        0.2016175865985534    
     2.046405005327335        0.1986202010580265    
     2.056339010207564        0.1956678834452458    
     2.066273015087794        0.1927599559818656    
     2.076207019968024        0.1898957502460431    
     2.086141024848254        0.1870746070948134    
     2.096075029728484        0.1842958765840410    
     2.106009034608713        0.1815589178861655    
     2.115943039488943        0.1788630992059569    
     2.125877044369173        0.1762077976944711    
     2.135811049249403        0.1735923993613974    
     2.145745054129633        0.1710162989859689    
     2.155679059009862        0.1684789000266027    
     2.165613063890092        0.1659796145294286    
     2.175547068770322        0.1635178630358448    
     2.185481073650552        0.1610930744892438    
     2.195415078530782        0.1587046861410376    
     2.205349083411011        0.1563521434561022    
     2.215283088291241        0.1540349000177527    
     2.225217093171471        0.1517524174323618    
     2.235151098051701        0.1495041652337189    
     2.245085102931931        0.1472896207872220    
     2.255019107812160        0.1451082691939932    
     2.264953112692390        0.1429596031950022    
     2.274887117572620        0.1408431230752673    
     2.284821122452850        0.1387583365682151    
     2.294755127333080        0.1367047587602606    
     2.304689132213309        0.1346819119956697    
     2.314623137093539        0.1326893257817688    
     2.324557141973769        0.1307265366945468    
     2.334491146853999        0.1287930882847083    
     2.344425151734228        0.1268885309842206    
     2.354359156614458        0.1250124220133970    
     2.364293161494688        0.1231643252885614    
     2.374227166374918        0.1213438113303257    
     2.384161171255148        0.1195504571725177    
     2.394095176135377        0.1177838462717916    
     2.404029181015607        0.1160435684179451    
     2.413963185895837        0.1143292196449777    
     2.423897190776067        0.1126404021429042    
     2.433831195656297        0.1109767241703572    
     2.443765200536526        0.1093377999679847    
     2.453699205416756        0.1077232496726761    
     2.463633210296986        0.1061326992326182    
     2.473567215177216        0.1045657803232063    
     2.483501220057445        0.1030221302638183    
     2.493435224937675        0.1015013919354625    
     2.503369229817905        0.1000032136993132    
     2.513303234698135        0.9852724931613675E-01
     2.523237239578364        0.9707315786662150E-01
     2.533171244458594        0.9564060367261111E-01
     2.543105249338824        0.9422925621925259E-01
     2.553039254219054        0.9283879007805827E-01
     2.562973259099284        0.9146888483088622E-01
     2.572907263979513        0.9011922499484187E-01
     2.582841268859743        0.8878949994809691E-01
     2.592775273739973        0.8747940385663483E-01
     2.602709278620203        0.8618863560191188E-01
     2.612643283500432        0.8491689870944463E-01
     2.622577288380662        0.8366390127831172E-01
     2.632511293260892        0.8242935591157166E-01
     2.642445298141122        0.8121297964759165E-01
     2.652379303021351        0.8001449389228368E-01
     2.662313307901581        0.7883362435224513E-01
     2.672247312781811        0.7767010096880129E-01
     2.682181317662041        0.7652365785294032E-01
     2.692115322542270        0.7539403322114052E-01
     2.702049327422500        0.7428096933207642E-01
     2.711983332302730        0.7318421242420603E-01
     2.721917337182960        0.7210351265422543E-01
     2.731851342063190        0.7103862403638848E-01
     2.741785346943419        0.6998930438268441E-01
     2.751719351823649        0.6895531524386250E-01
     2.761653356703879        0.6793642185130019E-01
     2.771587361584109        0.6693239305970625E-01
     2.781521366464339        0.6594300129064747E-01
     2.791455371344568        0.6496802247689676E-01
     2.801389376224798        0.6400723600758906E-01
     2.811323381105028        0.6306042467417985E-01
     2.821257385985258        0.6212737461719745E-01
     2.831191390865488        0.6120787527377883E-01
     2.841125395745717        0.6030171932598228E-01
     2.851059400625947        0.5940870264986721E-01
     2.860993405506177        0.5852862426533340E-01
     2.870927410386407        0.5766128628670773E-01
     2.880861415266637        0.5680649387407424E-01
     2.890795420146866        0.5596405518533529E-01
     2.900729425027096        0.5513378132899508E-01
     2.910663429907326        0.5431548631765790E-01
     2.920597434787556        0.5350898702223173E-01
     2.930531439667786        0.5271410312682837E-01
     2.940465444548015        0.5193065708434885E-01
     2.950399449428245        0.5115847407275004E-01
     2.960333454308475        0.5039738195197851E-01
     2.970267459188705        0.4964721122156646E-01
     2.980201464068934        0.4890779497887822E-01
     2.990135468949164        0.4817896887800064E-01
     3.000069473829394        0.4746057108926759E-01
     3.010003478709624        0.4675244225940926E-01
     3.019937483589854        0.4605442547231906E-01
     3.029871488470083        0.4536636621042868E-01
     3.039805493350313        0.4468811231668254E-01
     3.049739498230543        0.4401951395710418E-01
     3.059673503110773        0.4336042358394442E-01
     3.069607507991003        0.4271069589940485E-01
     3.079541512871232        0.4207018781992765E-01
     3.089475517751462        0.4143875844104239E-01
     3.099409522631692        0.4081626900276446E-01
     3.109343527511922        0.4020258285553316E-01
     3.119277532392151        0.3959756542668553E-01
     3.129211537272381        0.3900108418745513E-01
     3.139145542152611        0.3841300862048936E-01
     3.149079547032841        0.3783321018787718E-01
     3.159013551913070        0.3726156229967918E-01
     3.168947556793300        0.3669794028295328E-01
     3.178881561673530        0.3614222135126811E-01
     3.188815566553760        0.3559428457469700E-01
     3.198749571433990        0.3505401085028383E-01
     3.208683576314219        0.3452128287297610E-01
     3.218617581194449        0.3399598510701553E-01
     3.228551586074679        0.3347800375778114E-01
     3.238485590954909        0.3296722674407627E-01
     3.248419595835138        0.3246354367085367E-01
     3.258353600715368        0.3196684580237130E-01
     3.268287605595598        0.3147702603577310E-01
     3.278221610475828        0.3099397887508617E-01
     3.288155615356057        0.3051760040563013E-01
     3.298089620236287        0.3004778826883072E-01
     3.308023625116517        0.2958444163743156E-01
     3.317957629996747        0.2912746119109848E-01
     3.327891634876976        0.2867674909240888E-01
     3.337825639757206        0.2823220896322125E-01
     3.347759644637436        0.2779374586141897E-01
     3.357693649517666        0.2736126625802064E-01
     3.367627654397896        0.2693467801465346E-01
     3.377561659278125        0.2651389036138214E-01
     3.387495664158355        0.2609881387488863E-01
     3.397429669038585        0.2568936045699649E-01
     3.407363673918815        0.2528544331353469E-01
     3.417297678799045        0.2488697693353525E-01
     3.427231683679274        0.2449387706875978E-01
     3.437165688559504        0.2410606071354850E-01
     3.447099693439734        0.2372344608498798E-01
     3.457033698319964        0.2334595260339163E-01
     3.466967703200194        0.2297350087308779E-01
     3.476901708080423        0.2260601266351097E-01
     3.486835712960653        0.2224341089059087E-01
     3.496769717840883        0.2188561959843475E-01
     3.506703722721113        0.2153256394129775E-01
     3.516637727601343        0.2118417016583739E-01
     3.526571732481572        0.2084036559364678E-01
     3.536505737361802        0.2050107860406255E-01
     3.546439742242032        0.2016623861724271E-01
     3.556373747122262        0.1983577607750992E-01
     3.566307752002492        0.1950962243695699E-01
     3.576241756882721        0.1918771013930796E-01
     3.586175761762951        0.1886997260403311E-01
     3.596109766643181        0.1855634421071246E-01
     3.606043771523411        0.1824676028364337E-01
     3.615977776403640        0.1794115707668927E-01
     3.625911781283870        0.1763947175836477E-01
     3.635845786164100        0.1734164239715349E-01
     3.645779791044330        0.1704760794705497E-01
     3.655713795924560        0.1675730823335663E-01
     3.665647800804789        0.1647068393862709E-01
     3.675581805685019        0.1618767658892747E-01
     3.685515810565249        0.1590822854023679E-01
     3.695449815445479        0.1563228296508792E-01
     3.705383820325709        0.1535978383941092E-01
     3.715317825205938        0.1509067592958016E-01
     3.725251830086168        0.1482490477966147E-01
     3.735185834966398        0.1456241669885690E-01
     3.745119839846628        0.1430315874914282E-01
     3.755053844726857        0.1404707873309889E-01
     3.764987849607087        0.1379412518192443E-01
     3.774921854487317        0.1354424734363908E-01
     3.784855859367547        0.1329739517146468E-01
     3.794789864247776        0.1305351931238556E-01
     3.804723869128006        0.1281257109588403E-01
     3.814657874008236        0.1257450252284829E-01
     3.824591878888466        0.1233926625464983E-01
     3.834525883768696        0.1210681560238753E-01
     3.844459888648925        0.1187710451629561E-01
     3.854393893529155        0.1165008757531311E-01
     3.864327898409385        0.1142571997681124E-01
     3.874261903289615        0.1120395752647711E-01
     3.884195908169844        0.1098475662835069E-01
     3.894129913050074        0.1076807427501203E-01
     3.904063917930304        0.1055386803791700E-01
     3.913997922810534        0.1034209605787887E-01
     3.923931927690763        0.1013271703569256E-01
     3.933865932570993        0.9925690222900265E-02
     3.943799937451223        0.9720975412695513E-02
     3.953733942331453        0.9518532930963039E-02
     3.963667947211682        0.9318323627452897E-02
     3.973601952091912        0.9120308867086015E-02
     3.983535956972142        0.8924450521389250E-02
     3.993469961852372        0.8730710960057758E-02
     4.003403966732602        0.8539053042656394E-02
     4.013337971612832        0.8349440110876728E-02
     4.023271976493062        0.8161835985594614E-02
     4.033205981373291        0.7976204987722705E-02
     4.043139986253521        0.7792512027223485E-02
     4.053073991133751        0.7610722819950892E-02
     4.063007996013980        0.7430804277105037E-02
     4.072942000894210        0.7252725072104459E-02
     4.082876005774440        0.7076456346535515E-02
     4.092810010654670        0.6901972488391676E-02
     4.102744015534900        0.6729251907371893E-02
     4.112678020415129        0.6558277739654447E-02
     4.122612025295359        0.6389038431198185E-02
     4.132546030175589        0.6221528167932077E-02
     4.142480035055819        0.6055747139035370E-02
     4.152414039936049        0.5891701633855734E-02
     4.162348044816278        0.5729403983306004E-02
     4.172282049696508        0.5568872363125506E-02
     4.182216054576738        0.5410130479867036E-02
     4.192150059456968        0.5253207161641069E-02
     4.202084064337197        0.5098135875216681E-02
     4.212018069217427        0.4944954189627386E-02
     4.221952074097657        0.4793703204391788E-02
     4.231886078977887        0.4644426958159000E-02
     4.241820083858117        0.4497171831239961E-02
     4.251754088738346        0.4351985953224479E-02
     4.261688093618576        0.4208918624797234E-02
     4.271622098498806        0.4068019760988086E-02
     4.281556103379035        0.3929339361445731E-02
     4.291490108259265        0.3792927011898614E-02
     4.301424113139495        0.3658831419756811E-02
     4.311358118019725        0.3527099985790955E-02
     4.321292122899955        0.3397778412979601E-02
     4.331226127780185        0.3270910352924036E-02
     4.341160132660415        0.3146537089667503E-02
     4.351094137540644        0.3024697260308014E-02
     4.361028142420874        0.2905426611439026E-02
     4.370962147301103        0.2788757790179938E-02
     4.380896152181333        0.2674720168352857E-02
     4.390830157061563        0.2563339698210945E-02
     4.400764161941793        0.2454638798021268E-02
     4.410698166822023        0.2348636265738024E-02
     4.420632171702253        0.2245347218968705E-02
     4.430566176582483        0.2144783059424587E-02
     4.440500181462713        0.2046951460058698E-02
     4.450434186342942        0.1951856373120624E-02
     4.460368191223171        0.1859498057396979E-02
     4.470302196103401        0.1769873122955931E-02
     4.480236200983631        0.1682974591770202E-02
     4.490170205863861        0.1598791972656563E-02
     4.500104210744091        0.1517311349034613E-02
     4.510038215624321        0.1438515478077989E-02
     4.519972220504551        0.1362383899900646E-02
     4.529906225384781        0.1288893055492659E-02
     4.539840230265010        0.1218016412190862E-02
     4.549774235145239        0.1149724595539973E-02
     4.559708240025469        0.1083985526469949E-02
     4.569642244905699        0.1020764562782465E-02
     4.579576249785929        0.9600246440063517E-03
     4.589510254666159        0.9017264387453860E-03
     4.599444259546389        0.8458284937045656E-03
     4.609378264426619        0.7922873836398325E-03
     4.619312269306849        0.7410578615342046E-03
     4.629246274187078        0.6920930083573816E-03
     4.639180279067308        0.6453443818182998E-03
     4.649114283947537        0.6007621635691576E-03
     4.659048288827767        0.5582953043659179E-03
     4.668982293707997        0.5178916667340765E-03
     4.678916298588227        0.4794981647288455E-03
     4.688850303468457        0.4430609004161485E-03
     4.698784308348687        0.4085252967349539E-03
     4.708718313228916        0.3758362264309990E-03
     4.718652318109146        0.3449381367778973E-03
     4.728586322989376        0.3157751698220827E-03
     4.738520327869606        0.2882912779021690E-03
     4.748454332749835        0.2624303342002174E-03
     4.758388337630065        0.2381362380783279E-03
     4.768322342510295        0.2153530149373770E-03
     4.778256347390525        0.1940249102983475E-03
     4.788190352270755        0.1740964777440162E-03
     4.798124357150984        0.1555126602560652E-03
     4.808058362031214        0.1382188643203696E-03
     4.817992366911444        0.1221610259177104E-03
     4.827926371791674        0.1072856671130583E-03
     4.837860376671903        0.9353994130705307E-04
     4.847794381552133        0.8087166414634505E-04
     4.857728386432363        0.6922932528223566E-04
     4.867662391312593        0.5856207299408122E-04
     4.877596396192822        0.4881965786566866E-04
     4.887530401073052        0.3995231040197111E-04
     4.897464405953282        0.3191050404186114E-04
     4.907398410833512        0.2464450217003645E-04
     4.917332415713742        0.1810345472091994E-04
     4.927266420593972        0.1223342123743778E-04
     4.937200425474201        0.6972342419308975E-05
     4.947134430354431        0.2232040335575729E-05
     4.957068435234661         0.000000000000000    
  0  2  2  0  0.000000   #orbital l, n, z, is_polarized, population
 500    0.7222550789023765E-02     3.604052843722859     # npts, delta, cutoff
     0.000000000000000         1.385685880542757    
    0.7222550789023765E-02     1.385695719468299    
    0.1444510157804753E-01     1.385769203243570    
    0.2166765236707130E-01     1.385891555143578    
    0.2889020315609506E-01     1.386062566142230    
    0.3611275394511883E-01     1.386281945800174    
    0.4333530473414259E-01     1.386549315164555    
    0.5055785552316636E-01     1.386864201789186    
    0.5778040631219012E-01     1.387226034511497    
    0.6500295710121388E-01     1.387634137900712    
    0.7222550789023766E-01     1.388087726523779    
    0.7944805867926141E-01     1.388585899212799    
    0.8667060946828518E-01     1.389127633515276    
    0.9389316025730894E-01     1.389711780492203    
    0.1011157110463327         1.390337060005687    
    0.1083382618353565         1.391002056611100    
    0.1155608126243802         1.391705216140870    
    0.1227833634134040         1.392444843039785    