<preamble>

<basis_specs>
===============================================================================
Ti                   Z=  22    Mass=  47.867        Charge=  1.9100    
Lmxo=2 Lmxkb= 2    BasisType=split      Semic=T
L=0  Nsemic=1  Cnfigmx=4
          i=1  nzeta=1  polorb=0  (3s)  (semicore shell)
            splnorm:   0.15000    
               vcte:    93.950    
               rinn:    5.2000    
               qcoe:    0.0000    
               qyuk:    0.0000    
               qwid:   0.10000E-01
                rcs:    5.7035    
            lambdas:    1.0000    
          i=2  nzeta=2  polorb=0  (4s)
            splnorm:   0.15000    
               vcte:    96.470    
               rinn:    5.6000    
               qcoe:    0.0000    
               qyuk:    0.0000    
               qwid:   0.10000E-01
                rcs:    6.1055      5.0981    
            lambdas:    1.0000      1.0000    
L=1  Nsemic=1  Cnfigmx=4
          i=1  nzeta=1  polorb=0  (3p)  (semicore shell)
            splnorm:   0.15000    
               vcte:    95.470    
               rinn:    5.2000    
               qcoe:    0.0000    
               qyuk:    0.0000    
               qwid:   0.10000E-01
                rcs:    5.7035    
            lambdas:    1.0000    
          i=2  nzeta=1  polorb=0  (4p)
            splnorm:   0.15000    
               vcte:   0.50000    
               rinn:    1.7700    
               qcoe:    0.0000    
               qyuk:    0.0000    
               qwid:   0.10000E-01
                rcs:    3.0574    
            lambdas:    1.0000    
L=2  Nsemic=0  Cnfigmx=3
          i=1  nzeta=2  polorb=0  (3d)
            splnorm:   0.15000    
               vcte:    46.050    
               rinn:    4.9500    
               qcoe:    0.0000    
               qyuk:    0.0000    
               qwid:   0.10000E-01
                rcs:    5.9486      4.7054    
            lambdas:    1.0000      1.0000    
-------------------------------------------------------------------------------
L=0  Nkbl=2  erefs: 0.17977+309 0.17977+309
L=1  Nkbl=2  erefs: 0.17977+309 0.17977+309
L=2  Nkbl=1  erefs: 0.17977+309
===============================================================================
</basis_specs>

<pseudopotential_header>
 Ti pb rel pcec
 ONCVPSP-3.2018-04-19Hamann's oncvpsp                        
 3s 2.00r r= 1.36/3p 6.00r r= 1.31/3d 2.00r r= 1.66/                    3s:3p:3d:4s:
</pseudopotential_header>
</preamble>
Ti                            # Symbol
Ti                            # Label
   22                         # Atomic number
     12.0000000000                             # Valence charge
     47.8670000000        # Mass 
     177.040275933        # Self energy 
   2   7                      # Lmax for basis, no. of nl orbitals 
   2   7                      # Lmax for projectors, no. of nl KB projectors
# PAOs:__________________________
  0  3  1  0  2.000000   #orbital l, n, z, is_polarized, population
 500    0.1142983703042324E-01     5.703488678181195     # npts, delta, cutoff
     0.000000000000000         1.033578347530725    
    0.1142983703042324E-01     1.033976330762813    
    0.2285967406084647E-01     1.035230700171729    
    0.3428951109126971E-01     1.037316313274995    
    0.4571934812169295E-01     1.040225661172355    
    0.5714918515211619E-01     1.043948271828663    
    0.6857902218253942E-01     1.048470742017147    
    0.8000885921296266E-01     1.053776781772220    
    0.9143869624338589E-01     1.059847269037406    
    0.1028685332738091         1.066660314184967    
    0.1142983703042324         1.074191334262660    
    0.1257282073346556         1.082413136833704    
    0.1371580443650788         1.091296013255860    
    0.1485878813955021         1.100807841215392    
    0.1600177184259253         1.110914196296582    
    0.1714475554563485         1.121578472328665    
    0.1828773924867718         1.132762010210439    
    0.1943072295171950         1.144424234868629    
    0.2057370665476183         1.156522799959751    
    0.2171669035780415         1.169013739877240    
    0.2285967406084647         1.181851628575968    
    0.2400265776388880         1.194989744675649    
    0.2514564146693112         1.208380242253161    
    0.2628862516997345         1.221974326681979    
    0.2743160887301577         1.235722434825240    
    0.2857459257605809         1.249574418837953    
    0.2971757627910042         1.263479732784254    
    0.3086055998214274         1.277387621228196    
    0.3200354368518507         1.291247308912260    
    0.3314652738822739         1.305008190597837    
    0.3428951109126971         1.318620020107337    
    0.3543249479431204         1.332033097580118    
    0.3657547849735436         1.345198453935196    
    0.3771846220039668         1.358068031524537    
    0.3886144590343901         1.370594859962954    
    0.4000442960648133         1.382733226135692    
    0.4114741330952365         1.394438837413636    
    0.4229039701256598         1.405668977149352    
    0.4343338071560830         1.416382651584850    
    0.4457636441865062         1.426540727373400    
    0.4571934812169295         1.436106059001351    
    0.4686233182473527         1.445043605489684    
    0.4800531552777759         1.453320535856021    
    0.4914829923081992         1.460906322922925    
    0.5029128293386225         1.467772825164037    
    0.5143426663690457         1.473894356382974    
    0.5257725033994689         1.479247743117881    
    0.5372023404298921         1.483812369755499    
    0.5486321774603153         1.487570211420886    
    0.5600620144907386         1.490505854782582    
    0.5714918515211619         1.492606506978274    
    0.5829216885515851         1.493861992923673    
    0.5943515255820083         1.494264741319178    
    0.6057813626124315         1.493809759715618    
    0.6172111996428548         1.492494599044012    
    0.6286410366732780         1.490319308055235    
    0.6400708737037013         1.487286378154847    
    0.6515007107341245         1.483400679156280    
    0.6629305477645477         1.478669386512307    
    0.6743603847949710         1.473101900619857    
    0.6857902218253942         1.466709758826636    
    0.6972200588558174         1.459506540798935    
    0.7086498958862407         1.451507767937947    
    0.7200797329166639         1.442730797556081    
    0.7315095699470872         1.433194712544463    
    0.7429394069775104         1.422920207277094    
    0.7543692440079336         1.411929479135960    
    0.7657990810383569         1.400246094218582    
    0.7772289180687801         1.387894858889181    
    0.7886587550992034         1.374901723594375    
    0.8000885921296266         1.361293649599082    
    0.8115184291600498         1.347098487914359    
    0.8229482661904730         1.332344859492611    
    0.8343781032208963         1.317062037289162    
    0.8458079402513196         1.301279830738099    
    0.8572377772817428         1.285028473134429    
    0.8686676143121660         1.268338512355331    
    0.8800974513425892         1.251240705291906    
    0.8915272883730124         1.233765916301053    
    0.9029571254034358         1.215945019926151    
    0.9143869624338590         1.197808808076371    
    0.9258167994642822         1.179387901798971    
    0.9372466364947054         1.160712667727495    
    0.9486764735251286         1.141813139242278    
    0.9601063105555518         1.122718942338502    
    0.9715361475859752         1.103459226161411    
    0.9829659846163984         1.084062598138453    
    0.9943958216468216         1.064557063613846    
     1.005825658677245         1.044969969872263    
     1.017255495707668         1.025327954424643    
     1.028685332738091         1.005656897420229    
     1.040115169768514        0.9859818780443129    
     1.051545006798938        0.9663271347604016    
     1.062974843829361        0.9467160292581063    
     1.074404680859784        0.9271710139734152    
     1.085834517890208        0.9077136030557811    
     1.097264354920631        0.8883643466659866    
     1.108694191951054        0.8691428084996390    
     1.120124028981477        0.8500675464429172    
     1.131553866011900        0.8311560962793778    
     1.142983703042324        0.8124249583788304    
     1.154413540072747        0.7938895873110899    
     1.165843377103170        0.7755643843384252    
     1.177273214133593        0.7574626927504803    
     1.188703051164017        0.7395967960139331    
     1.200132888194440        0.7219779187159667    
     1.211562725224863        0.7046162302855311    
     1.222992562255286        0.6875208514791404    
     1.234422399285710        0.6706998636184877    
     1.245852236316133        0.6541603205653054    
     1.257282073346556        0.6379082634151049    
     1.268711910376979        0.6219487378847981    
     1.280141747407403        0.6062858143533778    
     1.291571584437826        0.5909226105314195    
     1.303001421468249        0.5758613167137429    
     1.314431258498672        0.5611032233398847    
     1.325861095529095        0.5466487471453213    
     1.337290932559519        0.5324974639727408    
     1.348720769589942        0.5186481436167052    
     1.360150606620365        0.5050987675912862    
     1.371580443650788        0.4918466539703005    
     1.383010280681212        0.4788886846377685    
     1.394440117711635        0.4662215119086432    
     1.405869954742058        0.4538416223560398    
     1.417299791772481        0.4417453313361507    
     1.428729628802905        0.4299288055983043    
     1.440159465833328        0.4183880827907956    
     1.451589302863751        0.4071190874126862    
     1.463019139894174        0.3961176462010387    
     1.474448976924598        0.3853795024185205    
     1.485878813955021        0.3749003291161797    
     1.497308650985444        0.3646757414374773    
     1.508738488015867        0.3547013080247737    
     1.520168325046291        0.3449725615851776    
     1.531598162076714        0.3354850086690271    
     1.543027999107137        0.3262341387108422    
     1.554457836137560        0.3172154323793540    
     1.565887673167983        0.3084243692801422    
     1.577317510198407        0.2998564350515629    
     1.588747347228830        0.2915071278919447    
     1.600177184259253        0.2833719645533687    
     1.611607021289676        0.2754464858355568    
     1.623036858320100        0.2677262616096966    
     1.634466695350523        0.2602068954075625    
     1.645896532380946        0.2528840285919811    
     1.657326369411369        0.2457533440988207    
     1.668756206441793        0.2388105699115724    
     1.680186043472216        0.2320514823747309    
     1.691615880502639        0.2254719092275264    
     1.703045717533062        0.2190677322673391    
     1.714475554563486        0.2128348895378983    
     1.725905391593909        0.2067693771376664    
     1.737335228624332        0.2008672508255457    
     1.748765065654755        0.1951246274168972    
     1.760194902685178        0.1895376859618501    
     1.771624739715602        0.1841026687307240    
     1.783054576746025        0.1788158820200715    
     1.794484413776448        0.1736736967926331    
     1.805914250806872        0.1686725491637320    
     1.817344087837295        0.1638089407457771    
     1.828773924867718        0.1590794388618903    
     1.840203761898141        0.1544806766389678    
     1.851633598928564        0.1500093529898311    
     1.863063435958988        0.1456622324935026    
     1.874493272989411        0.1414361451820752    
     1.885923110019834        0.1373279862420896    
     1.897352947050257        0.1333347156378243    
     1.908782784080681        0.1294533576634291    
     1.920212621111104        0.1256810004303838    
     1.931642458141527        0.1220147952963251    
     1.943072295171950        0.1184519562409184    
     1.954502132202373        0.1149897591940420    
     1.965931969232797        0.1116255413212302    
     1.977361806263220        0.1083567002709674    
     1.988791643293643        0.1051806933881280    
     2.000221480324067        0.1020950368975444    
     2.011651317354490        0.9909730506142415E-01
     2.023081154384913        0.9618512931405217E-01
     2.034510991415336        0.9335619737697637E-01
     2.045940828445759        0.9060825235763524E-01
     2.057370665476183        0.8793909183415520E-01
     2.068800502506606        0.8534656692884685E-01
     2.080230339537029        0.8282858137272130E-01
     2.091660176567452        0.8038309056316786E-01
     2.103090013597876        0.7800810061676801E-01
     2.114519850628299        0.7570166741904830E-01
     2.125949687658722        0.7346189567284303E-01
     2.137379524689145        0.7128693794678820E-01
     2.148809361719568        0.6917499372531691E-01
     2.160239198749992        0.6712430846150581E-01
     2.171669035780415        0.6513317263423500E-01
     2.183098872810838        0.6319992081036115E-01
     2.194528709841261        0.6132293071179903E-01
     2.205958546871685        0.5950062228991956E-01
     2.217388383902108        0.5773145680983607E-01
     2.228818220932531        0.5601393594459552E-01
     2.240248057962954        0.5434660088051103E-01
     2.251677894993378        0.5272803143586879E-01
     2.263107732023801        0.5115684518425434E-01
     2.274537569054224        0.4963169656856057E-01
     2.285967406084648        0.4815127602330297E-01
     2.297397243115070        0.4671430913076077E-01
     2.308827080145494        0.4531955580866315E-01
     2.320256917175917        0.4396580950661910E-01
     2.331686754206340        0.4265189640100122E-01
     2.343116591236764        0.4137667460069590E-01
     2.354546428267187        0.4013903336941787E-01
     2.365976265297610        0.3893789236303824E-01
     2.377406102328033        0.3777220088008043E-01
     2.388835939358457        0.3664093712561228E-01
     2.400265776388880        0.3554310748905380E-01
     2.411695613419303        0.3447774583582158E-01
     2.423125450449726        0.3344391281280162E-01
     2.434555287480149        0.3244069516763405E-01
     2.445985124510573        0.3146720508176853E-01
     2.457414961540996        0.3052257951723181E-01
     2.468844798571419        0.2960597957702868E-01
     2.480274635601842        0.2871658987908869E-01
     2.491704472632266        0.2785361794365168E-01
     2.503134309662689        0.2701629359397687E-01
     2.514564146693112        0.2620386837024492E-01
     2.525993983723535        0.2541561495651473E-01
     2.537423820753959        0.2465082662058574E-01
     2.548853657784382        0.2390881666661066E-01
     2.560283494814805        0.2318891790029175E-01
     2.571713331845228        0.2249048210649168E-01
     2.583143168875651        0.2181287953908164E-01
     2.594573005906075        0.2115549842284539E-01
     2.606002842936498        0.2051774446725122E-01
     2.617432679966921        0.1989904039190491E-01
     2.628862516997344        0.1929882546348803E-01
     2.640292354027768        0.1871655504398625E-01
     2.651722191058191        0.1815170015001229E-01
     2.663152028088614        0.1760374702301944E-01
     2.674581865119038        0.1707219671021041E-01
     2.686011702149461        0.1655656465593608E-01
     2.697441539179884        0.1605638030338394E-01
     2.708871376210307        0.1557118670635553E-01
     2.720301213240730        0.1510054015092875E-01
     2.731731050271154        0.1464400978680727E-01
     2.743160887301577        0.1420117726815462E-01
     2.754590724332000        0.1377163640371490E-01
     2.766020561362423        0.1335499281602348E-01
     2.777450398392847        0.1295086360950930E-01
     2.788880235423270        0.1255887704729752E-01
     2.800310072453693        0.1217867223651736E-01
     2.811739909484116        0.1180989882192655E-01
     2.823169746514540        0.1145221668766357E-01
     2.834599583544963        0.1110529566694182E-01
     2.846029420575386        0.1076881525950275E-01
     2.857459257605809        0.1044246435664638E-01
     2.868889094636232        0.1012594097366183E-01
     2.880318931666656        0.9818951989481293E-02
     2.891748768697079        0.9521212893385670E-02
     2.903178605727502        0.9232447538590812E-02
     2.914608442757925        0.8952387902547872E-02
     2.926038279788349        0.8680773853793575E-02
     2.937468116818772        0.8417352925188026E-02
     2.948897953849195        0.8161880093383160E-02
     2.960327790879618        0.7914117564364578E-02
     2.971757627910041        0.7673834564916094E-02
     2.983187464940465        0.7440807139855568E-02
     2.994617301970888        0.7214817954897106E-02
     3.006047139001311        0.6995656104994614E-02
     3.017476976031734        0.6783116928026882E-02
     3.028906813062158        0.6577001823686280E-02
     3.040336650092581        0.6377118077435530E-02
     3.051766487123004        0.6183278689401957E-02
     3.063196324153428        0.5995302208078456E-02
     3.074626161183851        0.5813012568706543E-02
     3.086055998214274        0.5636238936216792E-02
     3.097485835244697        0.5464815552606792E-02
     3.108915672275121        0.5298581588638464E-02
     3.120345509305543        0.5137380999739339E-02
     3.131775346335967        0.4981062385995769E-02
     3.143205183366390        0.4829478856127802E-02
     3.154635020396813        0.4682487895338480E-02
     3.166064857427237        0.4539951236933108E-02
     3.177494694457660        0.4401734737606142E-02
     3.188924531488083        0.4267708256295733E-02
     3.200354368518506        0.4137745536509211E-02
     3.211784205548930        0.4011724092023976E-02
     3.223214042579353        0.3889525095871778E-02
     3.234643879609776        0.3771033272515866E-02
     3.246073716640199        0.3656136793132943E-02
     3.257503553670622        0.3544727173914458E-02
     3.268933390701046        0.3436699177303560E-02
     3.280363227731469        0.3331950716085789E-02
     3.291793064761892        0.3230382760254947E-02
     3.303222901792315        0.3131899246576150E-02
     3.314652738822739        0.3036406990770968E-02
     3.326082575853162        0.2943815602251279E-02
     3.337512412883585        0.2854037401330335E-02
     3.348942249914008        0.2766987338841580E-02
     3.360372086944432        0.2682582918097045E-02
     3.371801923974855        0.2600744119119930E-02
     3.383231761005278        0.2521393325086740E-02
     3.394661598035702        0.2444455250916547E-02
     3.406091435066124        0.2369856873946577E-02
     3.417521272096548        0.2297527366634879E-02
     3.428951109126971        0.2227398031232538E-02
     3.440380946157394        0.2159402236369099E-02
     3.451810783187817        0.2093475355496941E-02
     3.463240620218241        0.2029554707141423E-02
     3.474670457248664        0.1967579496905057E-02
     3.486100294279087        0.1907490761175683E-02
     3.497530131309511        0.1849231312489555E-02
     3.508959968339934        0.1792745686502058E-02
     3.520389805370357        0.1737980090519745E-02
     3.531819642400780        0.1684882353548722E-02
     3.543249479431203        0.1633401877815746E-02
     3.554679316461627        0.1583489591719554E-02
     3.566109153492050        0.1535097904171104E-02
     3.577538990522473        0.1488180660282565E-02
     3.588968827552896        0.1442693098366037E-02
     3.600398664583320        0.1398591808204063E-02
     3.611828501613743        0.1355834690554970E-02
     3.623258338644166        0.1314380917857340E-02
     3.634688175674589        0.1274190896098602E-02
     3.646118012705013        0.1235226227814017E-02
     3.657547849735436        0.1197449676183000E-02
     3.668977686765859        0.1160825130190958E-02
     3.680407523796282        0.1125317570825464E-02
     3.691837360826705        0.1090893038276575E-02
     3.703267197857129        0.1057518600112025E-02
     3.714697034887552        0.1025162320398653E-02
     3.726126871917975        0.9937932297425253E-03
     3.737556708948398        0.9633812962207478E-03
     3.748986545978822        0.9338973971788258E-03
     3.760416383009245        0.9053132918682500E-03
     3.771846220039668        0.8776015948995503E-03
     3.783276057070091        0.8507357504869339E-03
     3.794705894100515        0.8246900074611942E-03
     3.806135731130938        0.7994393950282898E-03
     3.817565568161361        0.7749596992516577E-03
     3.828995405191784        0.7512274402369079E-03
     3.840425242222207        0.7282198499982301E-03
     3.851855079252631        0.7059148509863660E-03
     3.863284916283054        0.6842910352586156E-03
     3.874714753313477        0.6633276442719591E-03
     3.886144590343901        0.6430045492808365E-03
     3.897574427374324        0.6233022323216815E-03
     3.909004264404747        0.6042017677669035E-03
     3.920434101435170        0.5856848044314243E-03
     3.931863938465594        0.5677335482154016E-03
     3.943293775496017        0.5503307452672222E-03
     3.954723612526440        0.5334596656513938E-03
     3.966153449556863        0.5171040875062759E-03
     3.977583286587286        0.5012482816771829E-03
     3.989013123617710        0.4858769968106565E-03
     4.000442960648133        0.4709754448962604E-03
     4.011872797678556        0.4565292872425896E-03
     4.023302634708980        0.4425246208745090E-03
     4.034732471739402        0.4289479653391544E-03
     4.046162308769826        0.4157862499084995E-03
     4.057592145800249        0.4030268011666456E-03
     4.069021982830672        0.3906573309704039E-03
     4.080451819861096        0.3786659247720099E-03
     4.091881656891519        0.3670410302931771E-03
     4.103311493921942        0.3557714465399901E-03
     4.114741330952365        0.3448463131484765E-03
     4.126171167982789        0.3342551000509563E-03
     4.137601005013212        0.3239875974535919E-03
     4.149030842043635        0.3140339061158237E-03
     4.160460679074058        0.3043844279226828E-03
     4.171890516104481        0.2950298567411688E-03
     4.183320353134905        0.2859611695522300E-03
     4.194750190165328        0.2771696178500877E-03
     4.206180027195751        0.2686467193008387E-03
     4.217609864226175        0.2603842496526406E-03
     4.229039701256598        0.2523742348898847E-03
     4.240469538287021        0.2446089436240325E-03
     4.251899375317444        0.2370808797140398E-03
     4.263329212347867        0.2297827751094617E-03
     4.274759049378290        0.2227075829095293E-03
     4.286188886408714        0.2158484706317375E-03
     4.297618723439137        0.2091988136836355E-03
     4.309048560469560        0.2027521890316814E-03
     4.320478397499984        0.1965023690612730E-03
     4.331908234530407        0.1904433156221792E-03
     4.343338071560830        0.1845691742537677E-03
     4.354767908591254        0.1788742685846580E-03
     4.366197745621676        0.1733530949015101E-03
     4.377627582652099        0.1680003168818405E-03
     4.389057419682523        0.1628107604859575E-03
     4.400487256712946        0.1577794090031796E-03
     4.411917093743369        0.1529013982476801E-03
     4.423346930773793        0.1481720118994637E-03
     4.434776767804216        0.1435866769860674E-03
     4.446206604834639        0.1391409595007321E-03
     4.457636441865063        0.1348305601529332E-03
     4.469066278895486        0.1306513102472508E-03
     4.480496115925908        0.1265991676866981E-03
     4.491925952956332        0.1226702130967437E-03
     4.503355789986755        0.1188606460663635E-03
     4.514785627017178        0.1151667815025790E-03
     4.526215464047602        0.1115850460950393E-03
     4.537645301078025        0.1081119748873045E-03
     4.549075138108448        0.1047442079515955E-03
     4.560504975138872        0.1014784871638614E-03
     4.571934812169295        0.9831165307612064E-04
     4.583364649199718        0.9524064188311428E-04
     4.594794486230141        0.9226248248039870E-04
     4.606224323260564        0.8937429361109968E-04
     4.617654160290988        0.8657328109862503E-04
     4.629083997321411        0.8385673516270234E-04
     4.640513834351834        0.8122202781622110E-04
     4.651943671382258        0.7866661034039442E-04
     4.663373508412681        0.7618801083585082E-04
     4.674803345443104        0.7378383184734258E-04
     4.686233182473527        0.7145174805980287E-04
     4.697663019503950        0.6918950406358162E-04
     4.709092856534373        0.6699491218672546E-04
     4.720522693564797        0.6486585039225416E-04
     4.731952530595220        0.6280026023843247E-04
     4.743382367625643        0.6079614490009805E-04
     4.754812204656067        0.5885156724917542E-04
     4.766242041686490        0.5696464799253749E-04
     4.777671878716913        0.5513356386546076E-04
     4.789101715747337        0.5335654587894586E-04
     4.800531552777760        0.5163187761924147E-04
     4.811961389808182        0.4995789359795595E-04
     4.823391226838606        0.4833297765118455E-04
     4.834821063869029        0.4675556138613232E-04
     4.846250900899452        0.4522412267375416E-04
     4.857680737929876        0.4373718418597562E-04
     4.869110574960299        0.4229331197611012E-04
     4.880540411990722        0.4089111410110834E-04
     4.891970249021146        0.3952923928434490E-04
     4.903400086051569        0.3820637561765671E-04
     4.914829923081991        0.3692124930140317E-04
     4.926259760112415        0.3567262342134887E-04
     4.937689597142838        0.3445929676120271E-04
     4.949119434173261        0.3328010264968622E-04
     4.960549271203685        0.3213390784102852E-04
     4.971979108234108        0.3101961142782708E-04
     4.983408945264531        0.2993614378523891E-04
     4.994838782294955        0.2888246554549241E-04
     5.006268619325378        0.2785756660175089E-04
     5.017698456355801        0.2686046514037411E-04
     5.029128293386224        0.2589020670066085E-04
     5.040558130416647        0.2494586326117377E-04
     5.051987967447070        0.2402653235178326E-04
     5.063417804477494        0.2313133619058021E-04
     5.074847641507917        0.2225942084483864E-04
     5.086277478538340        0.2140995541523267E-04
     5.097707315568764        0.2058213124252913E-04
     5.109137152599187        0.1977516113600568E-04
     5.120566989629610        0.1898827862285651E-04
     5.131996826660034        0.1822073721787926E-04
     5.143426663690456        0.1747180971274423E-04
     5.154856500720880        0.1674078748417484E-04
     5.166286337751303        0.1602697982038182E-04
     5.177716174781726        0.1532971326511306E-04
     5.189146011812150        0.1464833097869908E-04
     5.200575848842573        0.1398219211548512E-04
     5.212005685872996        0.1333067121706518E-04
     5.223435522903420        0.1269315762073156E-04
     5.234865359933843        0.1206905488860522E-04
     5.246295196964265        0.1145778074438906E-04
     5.257725033994689        0.1085877371484618E-04
     5.269154871025112        0.1027152552469473E-04
     5.280584708055535        0.9695649079738828E-05
     5.292014545085959        0.9130959229019204E-05
     5.303444382116382        0.8577533089700944E-05
     5.314874219146805        0.8035732447415512E-05
     5.326304056177229        0.7506188707239959E-05
     5.337733893207652        0.6989760172031695E-05
     5.349163730238075        0.6487473313823185E-05
     5.360593567268498        0.6000457961019326E-05
     5.372023404298921        0.5529883550754706E-05
     5.383453241329344        0.5076901003527444E-05
     5.394883078359768        0.4642592754565926E-05
     5.406312915390191        0.4227932042442886E-05
     5.417742752420614        0.3833751603904832E-05
     5.429172589451038        0.3460721329293039E-05
     5.440602426481461        0.3109334087923330E-05
     5.452032263511884        0.2779898756112603E-05
     5.463462100542308        0.2472539414188858E-05
     5.474891937572730        0.2187199682873538E-05
     5.486321774603153        0.1923651216837096E-05
     5.497751611633577        0.1681505445969096E-05
     5.509181448664000        0.1460227740974528E-05
     5.520611285694423        0.1259153271421960E-05
     5.532041122724847        0.1077503916095138E-05
     5.543470959755270        0.9144056739982328E-06
     5.554900796785693        0.7689061072701034E-06
     5.566330633816117        0.6399914228081551E-06
     5.577760470846539        0.5266028659049950E-06
     5.589190307876962        0.4276521544130179E-06
     5.600620144907386        0.3420357219037178E-06
     5.612049981937809        0.2686475547535185E-06
     5.623479818968232        0.2063903824238647E-06
     5.634909655998656        0.1541848666480620E-06
     5.646339493029079        0.1109761105368883E-06
     5.657769330059502        0.7573589821499472E-07
     5.669199167089926        0.4745623720362933E-07
     5.680629004120349        0.2511911970584972E-07
     5.692058841150772        0.7564618376625753E-08
     5.703488678181195         0.000000000000000    
  0  4  1  0  2.000000   #orbital l, n, z, is_polarized, population
 500    0.1223551116535351E-01     6.105520071511403     # npts, delta, cutoff
     0.000000000000000        0.6390089293016020    
    0.1223551116535351E-01    0.6392036543670406    
    0.2447102233070703E-01    0.6398246425020718    
    0.3670653349606054E-01    0.6408547217526784    