Siesta Version  : NO_VERSION_LABEL_AVAILABLE
Architecture    : ----
Compiler version: GNU-13.2.1
Compiler flags  : -fallow-argument-mismatch;-O3 -march=native
PP flags        : ----
Libraries       : ----
Parallelisations: MPI
GEMM3M support
NetCDF support
NetCDF-4 support

Runtime information:
* Directory : /home/arnold/Documents/Code/SIESTA/ahkole-sisl-files/tests/sisl/io/siesta/stdout-charges/mulliken_voronoi_hirshfeld_nc_md_scf
* Running in serial mode (only 1 MPI rank).
>> Start of run:  23-APR-2024  17:43:03

                           *********************** 
                           *  WELCOME TO SIESTA  * 
                           *********************** 

reinit: Reading from standard input
reinit: Dumping input in INPUT_TMP.30968
************************** Dump of input data file ****************************
LatticeConstant 1.0 Ang
%block LatticeVectors
 2.13000000 1.22975607 0.00000000
 2.13000000 -1.22975607 0.00000000
 0.00000000 0.00000000 14.20000000
%endblock LatticeVectors
NumberOfAtoms 2
AtomicCoordinatesFormat Ang
%block AtomicCoordinatesAndAtomicSpecies
 0.00000000 0.00000000 0.00000000 1 # 1: C
 1.38000000 0.00000000 0.00000000 1 # 2: C
%endblock AtomicCoordinatesAndAtomicSpecies
NumberOfSpecies 1
%block ChemicalSpeciesLabel
 1 6 C
%endblock ChemicalSpeciesLabel
MD.TypeOfRun cg
MD.Steps 2
WriteHirshfeldPop t
WriteVoronoiPop t
PartialChargesAtEveryGeometry t
PartialChargesAtEverySCFStep t
Spin non-colinear
WriteMullikenPop 1
MullikenInSCF t
Write.DMHS.History.NetCDF t
************************** End of input data file *****************************

reinit: -----------------------------------------------------------------------
reinit: System Name: 
reinit: -----------------------------------------------------------------------
reinit: System Label: siesta
reinit: -----------------------------------------------------------------------

initatom: Reading input for the pseudopotentials and atomic orbitals ----------
Species number:   1 Atomic number:    6 Label: C


---- Processing specs for species: C
Ground state valence configuration:   2s02  2p02
Reading pseudopotential information in PSML from:
  C.psml
PSML file version: 1.1
Using libxc ids:  101 130
GGA--PBE XC_GGA_X_PBE--XC_GGA_C_PBE pb
PSML uuid: 87620340-470b-11e8-5ed8-8e87ed7edbb4

---- Pseudopotential check for C 

Pseudopotential generated from a fully relativistic atomic calculation
There are spin-orbit semi-local pseudopotentials available

Pseudized shells:
2s( 2.00) rc: 1.20
2p( 2.00) rc: 1.26
Valence configuration for ps generation: 2s:2p: Total charge:   4.000000
For C, standard SIESTA heuristics set lmxkb to 3
 (one more than the basis l, including polarization orbitals).
Use PS.lmax or PS.KBprojectors blocks to override.
C pseudopotential only contains V_ls up to l=1 -- lmxkb reset.

<basis_specs>
===============================================================================
C                    Z=   6    Mass=  12.011        Charge= 0.17977+309
Lmxo=2 Lmxkb= 1    BasisType=split      Semic=F
L=0  Nsemic=0  Cnfigmx=2
          i=1  nzeta=2  polorb=0  (2s)
            splnorm:   0.15000    
               vcte:    40.000    
               rinn:  -0.90000    
               qcoe:    0.0000    
               qyuk:    0.0000    
               qwid:   0.10000E-01
                rcs:    0.0000      0.0000    
            lambdas:    1.0000      1.0000    
L=1  Nsemic=0  Cnfigmx=2
          i=1  nzeta=2  polorb=1  (2p)  (to be polarized perturbatively)
            splnorm:   0.15000    
               vcte:    40.000    
               rinn:  -0.90000    
               qcoe:    0.0000    
               qyuk:    0.0000    
               qwid:   0.10000E-01
                rcs:    0.0000      0.0000    
            lambdas:    1.0000      1.0000    
L=2  Nsemic=0  Cnfigmx=3
          i=1  nzeta=0  polorb=0  (3d)  (perturbative polarization orbital) (from 2p)
-------------------------------------------------------------------------------
L=0  Nkbl=1  erefs: 0.17977+309
L=1  Nkbl=1  erefs: 0.17977+309
===============================================================================
</basis_specs>

Using PAO.SplitTailNorm
atom: Called for C                     (Z =   6)
NOTE: C pseudopotential has channels up to l= 1
NOTE: PAOs with higher l will be generated with V_local
Maximum radius (at nrval) set to   50.00000 8518

read_vps: Pseudopotential generation method:
read_vps: ONCVPSP-3.Hamann's oncvpsp                        
Valence charge in pseudo generation:    4.00000

read_vps: Pseudopotential includes a core correction:
read_vps: Pseudo-core for xc-correction

xc_check: Exchange-correlation functional:
xc_check: Ceperley-Alder
xc_check: WARNING: Pseudopotential generated with GGA PBE functional
Got Vlocal (oncv-fit) from psml data
Choosing vlocal chloc cutoff:  3.131907
qtot up to nchloc:    4.00001913
atom: Maximum radius for chlocal:    3.13191
atom: Maximum radius for r*vlocal+2*Zval:    3.13191
Reading KB projs from C psml data
Using (derived) scalar-relativistic projectors in PSML file

PSML: Kleinman-Bylander projectors: 
   l= 0   rc=  1.219773   Ekb=  0.771050
   l= 0   rc=  1.219773   Ekb= 12.962866
   l= 1   rc=  1.278952   Ekb= -8.399849
   l= 1   rc=  1.278952   Ekb= -1.755000

PSML: Total number of  Kleinman-Bylander projectors:   8
atom: -------------------------------------------------------------------------

atom: SANKEY-TYPE ORBITALS:
atom: Selected multiple-zeta basis: split     

SPLIT: Orbitals with angular momentum L= 0

SPLIT: Basis orbitals for state 2s

SPLIT: PAO cut-off radius determined from an
SPLIT: energy shift=  0.010000 Ry
Split based on tail norm

   izeta = 1
                 lambda =    1.000000
                     rc =    4.511437
                 energy =   -0.989120
                kinetic =    0.946579
    potential(screened) =   -1.935699
       potential(ionic) =   -5.498314

   izeta = 2
                 rmatch =    3.075858
              splitnorm =    0.150000
                 energy =   -0.700820
                kinetic =    1.771753
    potential(screened) =   -2.472573
       potential(ionic) =   -6.339178

SPLIT: Orbitals with angular momentum L= 1

SPLIT: Basis orbitals for state 2p

SPLIT: PAO cut-off radius determined from an
SPLIT: energy shift=  0.010000 Ry
Split based on tail norm

   izeta = 1
                 lambda =    1.000000
                     rc =    5.490449
                 energy =   -0.369555
                kinetic =    2.447706
    potential(screened) =   -2.817262
       potential(ionic) =   -6.234860

   izeta = 2
                 rmatch =    3.744030
              splitnorm =    0.150000
                 energy =   -0.241893
                kinetic =    3.581585
    potential(screened) =   -3.823478
       potential(ionic) =   -7.591537
*Note: V_local used for l= 2

** Using vlocal for PAOs with L= 2

POLgen: Perturbative polarization orbital with L=  2

POLgen: Polarization orbital for state 2p
*Note: V_local used for lpol= 2

** Using vlocal for PAOs with L= 2
Split based on tail norm

   izeta = 1
                     rc =    5.490449
                 energy =    1.132178
                kinetic =    2.236568
    potential(screened) =   -1.104389
       potential(ionic) =   -3.924652
atom: Total number of Sankey-type orbitals: 13

atm_pop: Valence configuration (for local Pseudopot. screening):
 2s( 2.00)                                                            
 2p( 2.00)                                                            
 3d( 0.00)                                                            
Vna: chval, zval:    4.00000   4.00000

Vna:  Cut-off radius for the neutral-atom potential:   5.490449
comcore: Pseudo-core radius Rcore=  1.671741

atom: _________________________________________________________________________

prinput: Basis input 

PAO.BasisType split     

%block ChemicalSpeciesLabel
    1    6 C                       # Species index, atomic number, species label
%endblock ChemicalSpeciesLabel

%block PAO.Basis                 # Define Basis set
# WARNING: This information might be incomplete!
C                     2                    # Species label, number of l-shells
 n=2   0   2                         # n, l, Nzeta 
   4.511      3.076   
   1.000      1.000   
 n=2   1   2 P   1                   # n, l, Nzeta, Polarization, NzetaPol
   5.490      3.744   
   1.000      1.000   
%endblock PAO.Basis

prinput: ----------------------------------------------------------------------

Dumping basis to NetCDF file C.ion.nc
coor:   Atomic-coordinates input format  =     Cartesian coordinates
coor:                                          (in Angstroms)

siesta: Atomic coordinates (Bohr) and species
siesta:      0.00000   0.00000   0.00000  1        1
siesta:      2.60782   0.00000   0.00000  1        2

siesta: System type = slab      

initatomlists: Number of atoms, orbitals, and projectors:      2    26    16

siesta: ******************** Simulation parameters ****************************
siesta:
siesta: The following are some of the parameters of the simulation.
siesta: A complete list of the parameters used, including default values,
siesta: can be found in file out.fdf
siesta:
redata: Spin configuration                          = non-collinear
redata: Number of spin components                   = 4
redata: Time-Reversal Symmetry                      = F
redata: Spin spiral                                 = F
redata: Long output                                 =   F
redata: Number of Atomic Species                    =        1
redata: Charge density info will appear in .RHO file
redata: Write Mulliken Pop.                         = Atomic and Orbital charges
redata: Matel table size (NRTAB)                    =     1024
redata: Mesh Cutoff                                 =   300.0000 Ry
redata: Net charge of the system                    =     0.0000 |e|
redata: Min. number of SCF Iter                     =        0
redata: Max. number of SCF Iter                     =     1000
redata: SCF convergence failure will abort job
redata: SCF mix quantity                            = Hamiltonian
redata: Mix DM or H after convergence               =   F
redata: Recompute H after scf cycle                 =   F
redata: Mix DM in first SCF step                    =   T
redata: Write Pulay info on disk                    =   F
redata: New DM Occupancy tolerance                  = 0.000000000001
redata: No kicks to SCF
redata: DM Mixing Weight for Kicks                  =     0.5000
redata: Require Harris convergence for SCF          =   F
redata: Harris energy tolerance for SCF             =     0.000100 eV
redata: Require DM convergence for SCF              =   T
redata: DM tolerance for SCF                        =     0.000100
redata: Require EDM convergence for SCF             =   F
redata: EDM tolerance for SCF                       =     0.001000 eV
redata: Require H convergence for SCF               =   T
redata: Hamiltonian tolerance for SCF               =     0.001000 eV
redata: Require (free) Energy convergence for SCF   =   F
redata: (free) Energy tolerance for SCF             =     0.000100 eV
redata: Using Saved Data (generic)                  =   F
redata: Use continuation files for DM               =   T
redata: Neglect nonoverlap interactions             =   F
redata: Method of Calculation                       = Diagonalization
redata: Electronic Temperature                      =   299.9863 K
redata: Fix the spin of the system                  =   F
redata: Max. number of TDED Iter                    =        1
redata: Number of TDED substeps                     =        3
redata: Dynamics option                             = CG coord. optimization
redata: Variable cell                               =   F
redata: Use continuation files for CG               =   F
redata: Max atomic displ per move                   =     0.1058 Ang
redata: Maximum number of optimization moves        =        2
redata: Force tolerance                             =     0.0400 eV/Ang
mix.SCF: Pulay mixing                            = Pulay
mix.SCF:    Variant                              = stable
mix.SCF:    History steps                        = 2
mix.SCF:    Linear mixing weight                 =     0.250000
mix.SCF:    Mixing weight                        =     0.250000
mix.SCF:    SVD condition                        = 0.1000E-07
mix.SCF: Spin-component mixing                   all
redata: Save all siesta data in one NC              =   F
redata: ***********************************************************************

%block SCF.Mixers
  Pulay
%endblock SCF.Mixers

%block SCF.Mixer.Pulay
  # Mixing method
  method pulay
  variant stable

  # Mixing options
  weight 0.2500
  weight.linear 0.2500
  history 2
%endblock SCF.Mixer.Pulay

DM_history_depth set to one: no extrapolation allowed by default for geometry relaxation
Size of DM history Fstack: 1
Total number of electrons:     8.000000
Total ionic charge:     8.000000

* ProcessorY, Blocksize:    1  27


* Orbital distribution balance (max,min):    26    26


siesta: k-grid: Number of k-points = 1
siesta: k-point is Gamma-only

diag: Algorithm                                     = D&C
diag: Parallel over k                               =   F
diag: Use parallel 2D distribution                  =   F
diag: Parallel block-size                           = 27
diag: Parallel distribution                         =     1 x     1
diag: Used triangular part                          = Lower
diag: Absolute tolerance                            =  0.100E-15
diag: Orthogonalization factor                      =  0.100E-05
diag: Memory factor                                 =  1.0000


ts: **************************************************************
ts: Save H and S matrices                           =    F
ts: Save DM and EDM matrices                        =    F
ts: Only save the overlap matrix S                  =    F
ts: **************************************************************

************************ Begin: TS CHECKS AND WARNINGS ************************
************************ End: TS CHECKS AND WARNINGS **************************


                     ====================================
                        Begin CG opt. move =      0
                     ====================================

outcell: Unit cell vectors (Ang):
        2.130000    1.229756    0.000000
        2.130000   -1.229756    0.000000
        0.000000    0.000000   14.200000

outcell: Cell vector modules (Ang)   :    2.459512    2.459512   14.200000
outcell: Cell angles (23,13,12) (deg):     90.0000     90.0000     60.0000
outcell: Cell volume (Ang**3)        :     74.3904
Gamma-point calculation with interaction between periodic images
Some features might not work optimally:
e.g. DM initialization from atomic data
<dSpData1D:S at geom step 0
  <sparsity:sparsity for geom step 0
    nrows_g=26 nrows=26 sparsity=1.0000 nnzs=676, refcount: 7>
  <dData1D:(new from dSpData1D) n=676, refcount: 1>
refcount: 1>
new_DM -- step:     1
Initializing Density Matrix...

Attempting to read DM from file... Failed...
DM filled with atomic data:
<dSpData2D:DM initialized from atoms
  <sparsity:sparsity for geom step 0
    nrows_g=26 nrows=26 sparsity=1.0000 nnzs=676, refcount: 8>
  <dData2D:DM n=676 m=4, refcount: 1>
refcount: 1>
     spin moment: {S} , |S| = {    0.00000    0.00000    4.00000 }     4.00000
No. of atoms with KB's overlaping orbs in proc 0. Max # of overlaps:       2     151

InitMesh: MESH = 24 x 24 x 150 = 86400
InitMesh: Mesh cutoff (required, used) =   300.000   308.395 Ry
New grid distribution [1]: sub = 2

Hirshfeld Atomic Populations:
Atom #     dQatom  Atom pop         S        Sx        Sy        Sz  Species
     1   -0.00000   4.00000   2.00001   0.00000   0.00000   2.00001  C
     2    0.00001   3.99999   1.99999   0.00000   0.00000   1.99999  C
-------------------------------------------------------------------
 Total                        4.00000   0.00000   0.00000   4.00000

Voronoi Atomic Populations:
Atom #     dQatom  Atom pop         S        Sx        Sy        Sz  Species
     1   -0.00130   4.00130   2.01207   0.00000   0.00000   2.01207  C
     2    0.00131   3.99869   1.98793   0.00000   0.00000   1.98793  C
-------------------------------------------------------------------
 Total                        4.00000   0.00000   0.00000   4.00000
 

stepf: Fermi-Dirac step function

Hirshfeld Atomic Populations:
Atom #     dQatom  Atom pop         S        Sx        Sy        Sz  Species
     1   -0.00000   4.00000   0.00000   0.00000   0.00000   0.00000  C
     2    0.00001   3.99999   0.00000   0.00000   0.00000  -0.00000  C
-------------------------------------------------------------------
 Total                        0.00000   0.00000   0.00000   0.00000

Voronoi Atomic Populations:
Atom #     dQatom  Atom pop         S        Sx        Sy        Sz  Species
     1   -0.03272   4.03272   0.00074   0.00000   0.00000   0.00074  C
     2    0.03272   3.96728   0.00074   0.00000   0.00000  -0.00074  C
-------------------------------------------------------------------
 Total                        0.00000   0.00000   0.00000   0.00000
 

siesta: Program's energy decomposition (eV):
siesta: Ebs     =       -95.507939
siesta: Eions   =       564.310478
siesta: Ena     =       150.800224
siesta: Ekin    =       255.809925
siesta: Enl     =       -26.616923
siesta: Eso     =         0.000000
siesta: Edftu   =         0.000000
siesta: DEna    =       -19.091846
siesta: DUscf   =         2.376563
siesta: DUext   =         0.000000
siesta: Ex      =      -103.851413
siesta: Ec      =       -13.931131
siesta: Exc     =      -117.782544
siesta: EbV     =         0.000000
siesta: eta*DQ  =         0.000000
siesta: Emadel  =         0.000000
siesta: Emeta   =         0.000000
siesta: Emolmec =         0.000000
siesta: Ekinion =         0.000000
siesta: Eharris =      -311.112808
siesta: Etot    =      -318.815079
siesta: FreeEng =      -318.815079

        iscf     Eharris(eV)        E_KS(eV)     FreeEng(eV)     dDmax    Ef(eV) dHmax(eV)
   scf:    1     -311.112808     -318.815079     -318.815079  0.861301 -3.985117  3.393007
     spin moment: {S} , |S| = {    0.00000    0.00000    0.00000 }     0.00000

Using DM_out for analysis:

mulliken: Atomic and Orbital Populations:

Species: C                   

Atom      Orb        Charge      Spin       Svec
----------------------------------------------------------------
    1  1 2s         0.76904   0.03831      0.000   0.000  -0.038
    1  2 2s         0.22839   0.03661     -0.000   0.000   0.037
    1  3 2py        0.75827   0.04291     -0.000   0.000   0.043
    1  4 2pz        0.74400   0.04941     -0.000   0.000  -0.049
    1  5 2px        0.86111   0.04336     -0.000   0.000   0.043
    1  6 2py        0.18001   0.04090      0.000   0.000  -0.041
    1  7 2pz        0.25596   0.04941      0.000   0.000   0.049
    1  8 2px        0.08502   0.04224      0.000   0.000  -0.042
    1  9 3Pdxy      0.06182   0.00201      0.000   0.000  -0.002
    1 10 3Pdyz      0.00000   0.00000     -0.000   0.000   0.000
    1 11 3Pdz2      0.00362   0.00169     -0.000   0.000   0.002
    1 12 3Pdxz      0.00004   0.00000     -0.000   0.000   0.000
    1 13 3Pdx2-y2   0.05341   0.00109      0.000   0.000  -0.001
    1     Total     4.00070   0.00002      0.000   0.000   0.000

    2  1 2s         0.76726   0.03835     -0.000   0.000  -0.038
    2  2 2s         0.22906   0.03663      0.000   0.000   0.037
    2  3 2py        0.76009   0.04291      0.000   0.000   0.043
    2  4 2pz        0.74398   0.04941      0.000   0.000  -0.049
    2  5 2px        0.86167   0.04335     -0.000   0.000   0.043
    2  6 2py        0.17805   0.04091     -0.000   0.000  -0.041
    2  7 2pz        0.25598   0.04941     -0.000   0.000   0.049
    2  8 2px        0.08440   0.04224      0.000   0.000  -0.042
    2  9 3Pdxy      0.06177   0.00201      0.000   0.000  -0.002
    2 10 3Pdyz      0.00000   0.00000      0.000   0.000   0.000
    2 11 3Pdz2      0.00362   0.00169      0.000   0.000   0.002
    2 12 3Pdxz      0.00004   0.00000      0.000   0.000   0.000
    2 13 3Pdx2-y2   0.05340   0.00109     -0.000   0.000  -0.001
    2     Total     3.99930   0.00002      0.000   0.000  -0.000

----------------------------------------------------------------
Total               8.00000   0.00000      0.000   0.000   0.000

timer: Routine,Calls,Time,% = IterSCF        1       0.791  40.27

Hirshfeld Atomic Populations:
Atom #     dQatom  Atom pop         S        Sx        Sy        Sz  Species
     1   -0.00000   4.00000   0.00000   0.00000   0.00000   0.00000  C
     2    0.00001   3.99999   0.00000   0.00000   0.00000  -0.00000  C
-------------------------------------------------------------------
 Total                        0.00000   0.00000   0.00000   0.00000

Voronoi Atomic Populations:
Atom #     dQatom  Atom pop         S        Sx        Sy        Sz  Species
     1   -0.03240   4.03240   0.00058   0.00000   0.00000   0.00058  C
     2    0.03240   3.96760   0.00058   0.00000   0.00000  -0.00058  C
-------------------------------------------------------------------
 Total                        0.00000   0.00000   0.00000   0.00000
 

        iscf     Eharris(eV)        E_KS(eV)     FreeEng(eV)     dDmax    Ef(eV) dHmax(eV)
   scf:    2     -318.883235     -318.849574     -318.849574  0.034542 -3.396897  2.351654
     spin moment: {S} , |S| = {    0.00000    0.00000    0.00000 }     0.00000

Using DM_out for analysis:

mulliken: Atomic and Orbital Populations:

Species: C                   

Atom      Orb        Charge      Spin       Svec
----------------------------------------------------------------
    1  1 2s         0.78110   0.02948     -0.000   0.000  -0.029
    1  2 2s         0.21628   0.02819      0.000   0.000   0.028
    1  3 2py        0.74265   0.03270      0.000   0.000   0.033
    1  4 2pz        0.76157   0.03850     -0.000   0.000  -0.039
    1  5 2px        0.84470   0.03305     -0.000   0.000   0.033
    1  6 2py        0.19604   0.03116     -0.000   0.000  -0.031
    1  7 2pz        0.23840   0.03850      0.000   0.000   0.038
    1  8 2px        0.10200   0.03219      0.000   0.000  -0.032
    1  9 3Pdxy      0.06140   0.00154     -0.000   0.000  -0.002
    1 10 3Pdyz      0.00000   0.00000     -0.000   0.000   0.000
    1 11 3Pdz2      0.00368   0.00129      0.000   0.000   0.001
    1 12 3Pdxz      0.00004   0.00000      0.000   0.000   0.000
    1 13 3Pdx2-y2   0.05284   0.00084      0.000   0.000  -0.001
    1     Total     4.00070   0.00001     -0.000   0.000   0.000

    2  1 2s         0.77933   0.02952      0.000   0.000  -0.030
    2  2 2s         0.21694   0.02820     -0.000   0.000   0.028
    2  3 2py        0.74447   0.03270     -0.000   0.000   0.033
    2  4 2pz        0.76155   0.03850      0.000   0.000  -0.039
    2  5 2px        0.84526   0.03304     -0.000   0.000   0.033
    2  6 2py        0.19408   0.03117      0.000   0.000  -0.031
    2  7 2pz        0.23841   0.03850     -0.000   0.000   0.038
    2  8 2px        0.10138   0.03219      0.000   0.000  -0.032
    2  9 3Pdxy      0.06135   0.00154      0.000   0.000  -0.002
    2 10 3Pdyz      0.00000   0.00000     -0.000   0.000   0.000
    2 11 3Pdz2      0.00367   0.00129     -0.000   0.000   0.001
    2 12 3Pdxz      0.00004   0.00000      0.000   0.000   0.000
    2 13 3Pdx2-y2   0.05283   0.00084      0.000   0.000  -0.001
    2     Total     3.99930   0.00001      0.000   0.000  -0.000

----------------------------------------------------------------
Total               8.00000   0.00000      0.000   0.000   0.000


Hirshfeld Atomic Populations:
Atom #     dQatom  Atom pop         S        Sx        Sy        Sz  Species
     1   -0.00000   4.00000   0.00000   0.00000   0.00000   0.00000  C
     2    0.00001   3.99999   0.00000  -0.00000   0.00000  -0.00000  C
-------------------------------------------------------------------
 Total                        0.00000  -0.00000   0.00000   0.00000

Voronoi Atomic Populations:
Atom #     dQatom  Atom pop         S        Sx        Sy        Sz  Species
     1   -0.03162   4.03162   0.00015   0.00000   0.00000   0.00015  C
     2    0.03163   3.96837   0.00015  -0.00000   0.00000  -0.00015  C
-------------------------------------------------------------------
 Total                        0.00000  -0.00000   0.00000   0.00000
 

        iscf     Eharris(eV)        E_KS(eV)     FreeEng(eV)     dDmax    Ef(eV) dHmax(eV)
   scf:    3     -318.918952     -318.886291     -318.886291  0.080506 -2.089619  0.642405
     spin moment: {S} , |S| = {   -0.00000    0.00000    0.00000 }     0.00000

Using DM_out for analysis:

mulliken: Atomic and Orbital Populations:

Species: C                   

Atom      Orb        Charge      Spin       Svec
----------------------------------------------------------------
    1  1 2s         0.80895   0.00686      0.000   0.000  -0.007
    1  2 2s         0.18797   0.00660     -0.000   0.000   0.007
    1  3 2py        0.70548   0.00651      0.000   0.000   0.007
    1  4 2pz        0.80059   0.01024      0.000   0.000  -0.010
    1  5 2px        0.80554   0.00653     -0.000   0.000   0.007
    1  6 2py        0.23446   0.00614     -0.000   0.000  -0.006
    1  7 2pz        0.19938   0.01024     -0.000   0.000   0.010
    1  8 2px        0.14268   0.00631      0.000   0.000  -0.006
    1  9 3Pdxy      0.06015   0.00038      0.000   0.000  -0.000
    1 10 3Pdyz      0.00000   0.00000      0.000   0.000   0.000
    1 11 3Pdz2      0.00415   0.00026     -0.000   0.000   0.000
    1 12 3Pdxz      0.00003   0.00000     -0.000   0.000   0.000
    1 13 3Pdx2-y2   0.05131   0.00022      0.000   0.000  -0.000
    1     Total     4.00069   0.00000      0.000   0.000   0.000

    2  1 2s         0.80719   0.00687     -0.000   0.000  -0.007
    2  2 2s         0.18862   0.00660      0.000   0.000   0.007
    2  3 2py        0.70731   0.00651     -0.000   0.000   0.007
    2  4 2pz        0.80057   0.01024     -0.000   0.000  -0.010
    2  5 2px        0.80610   0.00653      0.000   0.000   0.007
    2  6 2py        0.23249   0.00614      0.000   0.000  -0.006
    2  7 2pz        0.19939   0.01024      0.000   0.000   0.010
    2  8 2px        0.14205   0.00631     -0.000   0.000  -0.006
    2  9 3Pdxy      0.06010   0.00038     -0.000   0.000  -0.000
    2 10 3Pdyz      0.00000   0.00000     -0.000   0.000   0.000
    2 11 3Pdz2      0.00414   0.00026      0.000   0.000   0.000
    2 12 3Pdxz      0.00003   0.00000     -0.000   0.000   0.000
    2 13 3Pdx2-y2   0.05129   0.00022     -0.000   0.000  -0.000
    2     Total     3.99931   0.00000     -0.000   0.000  -0.000

----------------------------------------------------------------
Total               8.00000   0.00000     -0.000   0.000   0.000


Hirshfeld Atomic Populations:
Atom #     dQatom  Atom pop         S        Sx        Sy        Sz  Species
     1   -0.00000   4.00000   0.00000  -0.00000   0.00000   0.00000  C
     2    0.00001   3.99999   0.00000   0.00000   0.00000  -0.00000  C
-------------------------------------------------------------------
 Total                        0.00000   0.00000   0.00000   0.00000

Voronoi Atomic Populations:
Atom #     dQatom  Atom pop         S        Sx        Sy        Sz  Species
     1   -0.03160   4.03160   0.00011  -0.00000   0.00000   0.00011  C
     2    0.03160   3.96840   0.00011   0.00000   0.00000  -0.00011  C
-------------------------------------------------------------------
 Total                        0.00000   0.00000   0.00000   0.00000
 

        iscf     Eharris(eV)        E_KS(eV)     FreeEng(eV)     dDmax    Ef(eV) dHmax(eV)
   scf:    4     -318.887559     -318.886922     -318.886922  0.003907 -2.081432  0.456235
     spin moment: {S} , |S| = {    0.00000    0.00000    0.00000 }     0.00000

Using DM_out for analysis:

mulliken: Atomic and Orbital Populations:

Species: C                   

Atom      Orb        Charge      Spin       Svec
----------------------------------------------------------------
    1  1 2s         0.80932   0.00488      0.000   0.000  -0.005
    1  2 2s         0.18731   0.00470     -0.000   0.000   0.005
    1  3 2py        0.70430   0.00448      0.000   0.000   0.004
    1  4 2pz        0.80009   0.00746     -0.000   0.000  -0.007
    1  5 2px        0.80427   0.00448      0.000   0.000   0.004
    1  6 2py        0.23586   0.00421     -0.000   0.000  -0.004
    1  7 2pz        0.19988   0.00746      0.000   0.000   0.007
    1  8 2px        0.14414   0.00432     -0.000   0.000  -0.004
    1  9 3Pdxy      0.05994   0.00027      0.000   0.000  -0.000
    1 10 3Pdyz      0.00000   0.00000     -0.000   0.000   0.000
    1 11 3Pdz2      0.00444   0.00018      0.000   0.000   0.000
    1 12 3Pdxz      0.00003   0.00000     -0.000   0.000   0.000
    1 13 3Pdx2-y2   0.05112   0.00016      0.000   0.000  -0.000
    1     Total     4.00069   0.00000      0.000   0.000   0.000

    2  1 2s         0.80756   0.00489     -0.000   0.000  -0.005
    2  2 2s         0.18796   0.00470      0.000   0.000   0.005
    2  3 2py        0.70613   0.00448      0.000   0.000   0.004
    2  4 2pz        0.80007   0.00746     -0.000   0.000  -0.007
    2  5 2px        0.80484   0.00448     -0.000   0.000   0.004
    2  6 2py        0.23389   0.00421      0.000   0.000  -0.004
    2  7 2pz        0.19989   0.00746      0.000   0.000   0.007
    2  8 2px        0.14351   0.00432      0.000   0.000  -0.004
    2  9 3Pdxy      0.05989   0.00027     -0.000   0.000  -0.000
    2 10 3Pdyz      0.00000   0.00000      0.000   0.000   0.000
    2 11 3Pdz2      0.00443   0.00018     -0.000   0.000   0.000
    2 12 3Pdxz      0.00003   0.00000      0.000   0.000   0.000
    2 13 3Pdx2-y2   0.05111   0.00016     -0.000   0.000  -0.000
    2     Total     3.99931   0.00000     -0.000   0.000  -0.000

----------------------------------------------------------------
Total               8.00000   0.00000      0.000   0.000   0.000


Hirshfeld Atomic Populations:
Atom #     dQatom  Atom pop         S        Sx        Sy        Sz  Species
     1   -0.00000   4.00000   0.00000  -0.00000   0.00000   0.00000  C
     2    0.00001   3.99999   0.00000   0.00000   0.00000  -0.00000  C
-------------------------------------------------------------------
 Total                        0.00000   0.00000   0.00000   0.00000

Voronoi Atomic Populations:
Atom #     dQatom  Atom pop         S        Sx        Sy        Sz  Species
     1   -0.03155   4.03155   0.00000  -0.00000   0.00000   0.00000  C
     2    0.03155   3.96845   0.00000   0.00000   0.00000  -0.00000  C
-------------------------------------------------------------------
 Total                        0.00000   0.00000   0.00000   0.00000
 

        iscf     Eharris(eV)        E_KS(eV)     FreeEng(eV)     dDmax    Ef(eV) dHmax(eV)
   scf:    5     -318.888332     -318.887612     -318.887612  0.008987 -2.098006  0.046321
     spin moment: {S} , |S| = {    0.00000    0.00000    0.00000 }     0.00000

Using DM_out for analysis:

mulliken: Atomic and Orbital Populations:

Species: C                   

Atom      Orb        Charge      Spin       Svec
----------------------------------------------------------------
    1  1 2s         0.80998   0.00002     -0.000   0.000   0.000
    1  2 2s         0.18594   0.00000      0.000   0.000  -0.000
    1  3 2py        0.70176   0.00043     -0.000   0.000  -0.000
    1  4 2pz        0.79840   0.00045      0.000   0.000  -0.000
    1  5 2px        0.80153   0.00046      0.000   0.000  -0.000
    1  6 2py        0.23892   0.00044      0.000   0.000   0.000
    1  7 2pz        0.20157   0.00045     -0.000   0.000   0.000
    1  8 2px        0.14733   0.00047     -0.000   0.000   0.000
    1  9 3Pdxy      0.05941   0.00001      0.000   0.000  -0.000
    1 10 3Pdyz      0.00000   0.00000      0.000   0.000   0.000
    1 11 3Pdz2      0.00515   0.00001      0.000   0.000  -0.000
    1 12 3Pdxz      0.00004   0.00000      0.000   0.000   0.000
    1 13 3Pdx2-y2   0.05067   0.00001     -0.000   0.000  -0.000
    1     Total     4.00070   0.00000     -0.000   0.000   0.000

    2  1 2s         0.80821   0.00002      0.000   0.000   0.000
    2  2 2s         0.18660   0.00000     -0.000   0.000  -0.000
    2  3 2py        0.70360   0.00043      0.000   0.000  -0.000
    2  4 2pz        0.79837   0.00045     -0.000   0.000  -0.000
    2  5 2px        0.80210   0.00046     -0.000   0.000  -0.000
    2  6 2py        0.23696   0.00044     -0.000   0.000   0.000
    2  7 2pz        0.20158   0.00045      0.000   0.000   0.000
    2  8 2px        0.14670   0.00047      0.000   0.000   0.000
    2  9 3Pdxy      0.05935   0.00001      0.000   0.000  -0.000
    2 10 3Pdyz      0.00000   0.00000      0.000   0.000  -0.000
    2 11 3Pdz2      0.00514   0.00001      0.000   0.000  -0.000
    2 12 3Pdxz      0.00004   0.00000     -0.000   0.000   0.000
    2 13 3Pdx2-y2   0.05066   0.00001      0.000   0.000  -0.000
    2     Total     3.99930   0.00000      0.000   0.000  -0.000

----------------------------------------------------------------
Total               8.00000   0.00000      0.000   0.000   0.000


Hirshfeld Atomic Populations:
Atom #     dQatom  Atom pop         S        Sx        Sy        Sz  Species
     1   -0.00000   4.00000   0.00000  -0.00000   0.00000   0.00000  C
     2    0.00001   3.99999   0.00000  -0.00000   0.00000  -0.00000  C
-------------------------------------------------------------------
 Total                        0.00000  -0.00000   0.00000   0.00000

Voronoi Atomic Populations:
Atom #     dQatom  Atom pop         S        Sx        Sy        Sz  Species
     1   -0.03155   4.03155   0.00000  -0.00000   0.00000   0.00000  C
     2    0.03156   3.96844   0.00000   0.00000   0.00000  -0.00000  C
-------------------------------------------------------------------
 Total                        0.00000  -0.00000   0.00000   0.00000
 

        iscf     Eharris(eV)        E_KS(eV)     FreeEng(eV)     dDmax    Ef(eV) dHmax(eV)
   scf:    6     -318.887626     -318.887619     -318.887619  0.000503 -2.098725  0.031213
     spin moment: {S} , |S| = {   -0.00000    0.00000    0.00000 }     0.00000

Using DM_out for analysis:

mulliken: Atomic and Orbital Populations:

Species: C                   

Atom      Orb        Charge      Spin       Svec
----------------------------------------------------------------
    1  1 2s         0.80978   0.00000      0.000   0.000  -0.000
    1  2 2s         0.18615   0.00001      0.000   0.000   0.000
    1  3 2py        0.70206   0.00031     -0.000   0.000  -0.000
    1  4 2pz        0.79810   0.00036     -0.000   0.000  -0.000
    1  5 2px        0.80183   0.00033     -0.000   0.000  -0.000
    1  6 2py        0.23862   0.00032      0.000   0.000   0.000
    1  7 2pz        0.20187   0.00036      0.000   0.000   0.000
    1  8 2px        0.14702   0.00034      0.000   0.000   0.000
    1  9 3Pdxy      0.05941   0.00001      0.000   0.000  -0.000
    1 10 3Pdyz      0.00000   0.00000     -0.000   0.000   0.000
    1 11 3Pdz2      0.00514   0.00001      0.000   0.000  -0.000
    1 12 3Pdxz      0.00004   0.00000     -0.000   0.000   0.000
    1 13 3Pdx2-y2   0.05068   0.00001      0.000   0.000  -0.000
    1     Total     4.00070   0.00000      0.000   0.000   0.000

    2  1 2s         0.80801   0.00000     -0.000   0.000  -0.000
    2  2 2s         0.18681   0.00001     -0.000   0.000   0.000
    2  3 2py        0.70389   0.00031      0.000   0.000  -0.000
    2  4 2pz        0.79808   0.00036      0.000   0.000  -0.000
    2  5 2px        0.80240   0.00033      0.000   0.000  -0.000
    2  6 2py        0.23666   0.00032     -0.000   0.000   0.000
    2  7 2pz        0.20188   0.00036     -0.000   0.000   0.000
    2  8 2px        0.14638   0.00034     -0.000   0.000   0.000
    2  9 3Pdxy      0.05936   0.00001     -0.000   0.000  -0.000
    2 10 3Pdyz      0.00000   0.00000      0.000   0.000  -0.000
    2 11 3Pdz2      0.00514   0.00001     -0.000   0.000  -0.000
    2 12 3Pdxz      0.00004   0.00000      0.000   0.000   0.000
    2 13 3Pdx2-y2   0.05067   0.00001     -0.000   0.000  -0.000
    2     Total     3.99930   0.00000     -0.000   0.000  -0.000

----------------------------------------------------------------
Total               8.00000   0.00000     -0.000   0.000   0.000


Hirshfeld Atomic Populations:
Atom #     dQatom  Atom pop         S        Sx        Sy        Sz  Species
     1   -0.00000   4.00000   0.00000  -0.00000   0.00000   0.00000  C
     2    0.00001   3.99999   0.00000   0.00000   0.00000  -0.00000  C
-------------------------------------------------------------------
 Total                        0.00000   0.00000   0.00000   0.00000

Voronoi Atomic Populations:
Atom #     dQatom  Atom pop         S        Sx        Sy        Sz  Species
     1   -0.03157   4.03157   0.00000  -0.00000   0.00000   0.00000  C
     2    0.03157   3.96843   0.00000   0.00000   0.00000  -0.00000  C
-------------------------------------------------------------------
 Total                        0.00000   0.00000   0.00000   0.00000
 

        iscf     Eharris(eV)        E_KS(eV)     FreeEng(eV)     dDmax    Ef(eV) dHmax(eV)
   scf:    7     -318.887631     -318.887626     -318.887626  0.001061 -2.099159  0.006968
     spin moment: {S} , |S| = {    0.00000    0.00000    0.00000 }     0.00000

Using DM_out for analysis:

mulliken: Atomic and Orbital Populations:

Species: C                   

Atom      Orb        Charge      Spin       Svec
----------------------------------------------------------------
    1  1 2s         0.80937   0.00004      0.000   0.000  -0.000
    1  2 2s         0.18657   0.00004     -0.000   0.000   0.000
    1  3 2py        0.70267   0.00006     -0.000   0.000  -0.000
    1  4 2pz        0.79751   0.00016      0.000   0.000  -0.000
    1  5 2px        0.80247   0.00006      0.000   0.000  -0.000
    1  6 2py        0.23799   0.00006      0.000   0.000   0.000
    1  7 2pz        0.20247   0.00016     -0.000   0.000   0.000
    1  8 2px        0.14635   0.00007     -0.000   0.000   0.000
    1  9 3Pdxy      0.05943   0.00000     -0.000   0.000  -0.000
    1 10 3Pdyz      0.00000   0.00000     -0.000   0.000  -0.000
    1 11 3Pdz2      0.00512   0.00000      0.000   0.000  -0.000
    1 12 3Pdxz      0.00004   0.00000     -0.000   0.000   0.000
    1 13 3Pdx2-y2   0.05071   0.00000     -0.000   0.000  -0.000
    1     Total     4.00070   0.00000      0.000   0.000   0.000

    2  1 2s         0.80760   0.00004     -0.000   0.000  -0.000
    2  2 2s         0.18723   0.00004      0.000   0.000   0.000
    2  3 2py        0.70450   0.00006     -0.000   0.000  -0.000
    2  4 2pz        0.79748   0.00016      0.000   0.000  -0.000
    2  5 2px        0.80304   0.00006     -0.000   0.000  -0.000
    2  6 2py        0.23603   0.00006      0.000   0.000   0.000
    2  7 2pz        0.20248   0.00016     -0.000   0.000   0.000
    2  8 2px        0.14572   0.00007      0.000   0.000   0.000
    2  9 3Pdxy      0.05938   0.00000      0.000   0.000  -0.000
    2 10 3Pdyz      0.00000   0.00000     -0.000   0.000   0.000
    2 11 3Pdz2      0.00512   0.00000      0.000   0.000  -0.000
    2 12 3Pdxz      0.00004   0.00000     -0.000   0.000   0.000
    2 13 3Pdx2-y2   0.05069   0.00000      0.000   0.000  -0.000
    2     Total     3.99930   0.00000     -0.000   0.000  -0.000

----------------------------------------------------------------
Total               8.00000   0.00000      0.000   0.000   0.000


Hirshfeld Atomic Populations:
Atom #     dQatom  Atom pop         S        Sx        Sy        Sz  Species
     1   -0.00000   4.00000   0.00000   0.00000   0.00000   0.00000  C
     2    0.00001   3.99999   0.00000   0.00000   0.00000  -0.00000  C
-------------------------------------------------------------------
 Total                        0.00000   0.00000   0.00000   0.00000

Voronoi Atomic Populations:
Atom #     dQatom  Atom pop         S        Sx        Sy        Sz  Species
     1   -0.03157   4.03157   0.00000   0.00000   0.00000   0.00000  C
     2    0.03157   3.96843   0.00000  -0.00000   0.00000  -0.00000  C
-------------------------------------------------------------------
 Total                        0.00000   0.00000   0.00000   0.00000
 

        iscf     Eharris(eV)        E_KS(eV)     FreeEng(eV)     dDmax    Ef(eV) dHmax(eV)
   scf:    8     -318.887626     -318.887626     -318.887626  0.000054 -2.098410  0.005210
     spin moment: {S} , |S| = {    0.00000    0.00000    0.00000 }     0.00000

Using DM_out for analysis:

mulliken: Atomic and Orbital Populations:

Species: C                   

Atom      Orb        Charge      Spin       Svec
----------------------------------------------------------------
    1  1 2s         0.80936   0.00003     -0.000   0.000  -0.000
    1  2 2s         0.18659   0.00003      0.000   0.000   0.000
    1  3 2py        0.70270   0.00004      0.000   0.000  -0.000
    1  4 2pz        0.79750   0.00012      0.000   0.000  -0.000
    1  5 2px        0.80250   0.00005      0.000   0.000  -0.000
    1  6 2py        0.23796   0.00005     -0.000   0.000   0.000
    1  7 2pz        0.20247   0.00012     -0.000   0.000   0.000
    1  8 2px        0.14632   0.00005     -0.000   0.000   0.000
    1  9 3Pdxy      0.05943   0.00000      0.000   0.000  -0.000
    1 10 3Pdyz      0.00000   0.00000      0.000   0.000   0.000
    1 11 3Pdz2      0.00512   0.00000     -0.000   0.000  -0.000
    1 12 3Pdxz      0.00004   0.00000      0.000   0.000   0.000
    1 13 3Pdx2-y2   0.05071   0.00000     -0.000   0.000  -0.000
    1     Total     4.00070   0.00000     -0.000   0.000   0.000

    2  1 2s         0.80759   0.00003      0.000   0.000  -0.000
    2  2 2s         0.18725   0.00003     -0.000   0.000   0.000
    2  3 2py        0.70453   0.00004      0.000   0.000  -0.000
    2  4 2pz        0.79748   0.00012     -0.000   0.000  -0.000
    2  5 2px        0.80307   0.00005     -0.000   0.000  -0.000
    2  6 2py        0.23600   0.00005     -0.000   0.000   0.000
    2  7 2pz        0.20248   0.00012      0.000   0.000   0.000
    2  8 2px        0.14569   0.00005      0.000   0.000   0.000
    2  9 3Pdxy      0.05938   0.00000      0.000   0.000  -0.000
    2 10 3Pdyz      0.00000   0.00000      0.000   0.000   0.000
    2 11 3Pdz2      0.00512   0.00000      0.000   0.000  -0.000
    2 12 3Pdxz      0.00004   0.00000     -0.000   0.000   0.000
    2 13 3Pdx2-y2   0.05069   0.00000     -0.000   0.000  -0.000
    2     Total     3.99930   0.00000      0.000   0.000  -0.000

----------------------------------------------------------------
Total               8.00000   0.00000      0.000   0.000   0.000


Hirshfeld Atomic Populations:
Atom #     dQatom  Atom pop         S        Sx        Sy        Sz  Species
     1   -0.00000   4.00000   0.00000   0.00000   0.00000   0.00000  C
     2    0.00001   3.99999   0.00000   0.00000   0.00000  -0.00000  C
-------------------------------------------------------------------
 Total                        0.00000   0.00000   0.00000   0.00000

Voronoi Atomic Populations:
Atom #     dQatom  Atom pop         S        Sx        Sy        Sz  Species
     1   -0.03157   4.03157   0.00000   0.00000   0.00000   0.00000  C
     2    0.03157   3.96843   0.00000   0.00000   0.00000  -0.00000  C
-------------------------------------------------------------------
 Total                        0.00000   0.00000   0.00000   0.00000
 

        iscf     Eharris(eV)        E_KS(eV)     FreeEng(eV)     dDmax    Ef(eV) dHmax(eV)
   scf:    9     -318.887626     -318.887626     -318.887626  0.000148 -2.096434  0.000422
     spin moment: {S} , |S| = {    0.00000    0.00000    0.00000 }     0.00000

Using DM_out for analysis:

mulliken: Atomic and Orbital Populations:

Species: C                   

Atom      Orb        Charge      Spin       Svec
----------------------------------------------------------------
    1  1 2s         0.80933   0.00000     -0.000   0.000  -0.000
    1  2 2s         0.18663   0.00000      0.000   0.000   0.000
    1  3 2py        0.70277   0.00000      0.000   0.000   0.000
    1  4 2pz        0.79748   0.00001      0.000   0.000  -0.000
    1  5 2px        0.80258   0.00000     -0.000   0.000   0.000
    1  6 2py        0.23788   0.00000     -0.000   0.000  -0.000
    1  7 2pz        0.20249   0.00001     -0.000   0.000   0.000
    1  8 2px        0.14623   0.00000      0.000   0.000  -0.000
    1  9 3Pdxy      0.05944   0.00000      0.000   0.000  -0.000
    1 10 3Pdyz      0.00000   0.00000      0.000   0.000   0.000
    1 11 3Pdz2      0.00511   0.00000     -0.000   0.000   0.000
    1 12 3Pdxz      0.00004   0.00000      0.000   0.000   0.000
    1 13 3Pdx2-y2   0.05071   0.00000      0.000   0.000  -0.000
    1     Total     4.00070   0.00000      0.000   0.000   0.000

    2  1 2s         0.80756   0.00000      0.000   0.000  -0.000
    2  2 2s         0.18729   0.00000     -0.000   0.000   0.000
    2  3 2py        0.70460   0.00000     -0.000   0.000   0.000
    2  4 2pz        0.79746   0.00001     -0.000   0.000  -0.000
    2  5 2px        0.80315   0.00000      0.000   0.000   0.000
    2  6 2py        0.23591   0.00000      0.000   0.000  -0.000
    2  7 2pz        0.20250   0.00001      0.000   0.000   0.000
    2  8 2px        0.14560   0.00000     -0.000   0.000  -0.000
    2  9 3Pdxy      0.05939   0.00000      0.000   0.000  -0.000
    2 10 3Pdyz      0.00000   0.00000      0.000   0.000  -0.000
    2 11 3Pdz2      0.00510   0.00000      0.000   0.000   0.000
    2 12 3Pdxz      0.00004   0.00000     -0.000   0.000   0.000
    2 13 3Pdx2-y2   0.05070   0.00000     -0.000   0.000  -0.000
    2     Total     3.99930   0.00000      0.000   0.000  -0.000

----------------------------------------------------------------
Total               8.00000   0.00000      0.000   0.000   0.000


Hirshfeld Atomic Populations:
Atom #     dQatom  Atom pop         S        Sx        Sy        Sz  Species
     1   -0.00000   4.00000   0.00000  -0.00000   0.00000   0.00000  C
     2    0.00001   3.99999   0.00000   0.00000   0.00000  -0.00000  C
-------------------------------------------------------------------
 Total                        0.00000  -0.00000   0.00000   0.00000

Voronoi Atomic Populations:
Atom #     dQatom  Atom pop         S        Sx        Sy        Sz  Species
     1   -0.03157   4.03157   0.00000  -0.00000   0.00000   0.00000  C
     2    0.03157   3.96843   0.00000   0.00000   0.00000  -0.00000  C
-------------------------------------------------------------------
 Total                        0.00000  -0.00000   0.00000   0.00000
 

        iscf     Eharris(eV)        E_KS(eV)     FreeEng(eV)     dDmax    Ef(eV) dHmax(eV)
   scf:   10     -318.887626     -318.887626     -318.887626  0.000004 -2.096357  0.000282
     spin moment: {S} , |S| = {   -0.00000    0.00000    0.00000 }     0.00000

Using DM_out for analysis:

mulliken: Atomic and Orbital Populations:

Species: C                   

Atom      Orb        Charge      Spin       Svec
----------------------------------------------------------------
    1  1 2s         0.80933   0.00000      0.000   0.000  -0.000
    1  2 2s         0.18663   0.00000     -0.000   0.000   0.000
    1  3 2py        0.70277   0.00000     -0.000   0.000   0.000
    1  4 2pz        0.79749   0.00001     -0.000   0.000  -0.000
    1  5 2px        0.80258   0.00000      0.000   0.000   0.000
    1  6 2py        0.23788   0.00000      0.000   0.000  -0.000
    1  7 2pz        0.20249   0.00001      0.000   0.000   0.000
    1  8 2px        0.14624   0.00000     -0.000   0.000  -0.000
    1  9 3Pdxy      0.05944   0.00000      0.000   0.000  -0.000
    1 10 3Pdyz      0.00000   0.00000     -0.000   0.000  -0.000
    1 11 3Pdz2      0.00511   0.00000      0.000   0.000   0.000
    1 12 3Pdxz      0.00004   0.00000     -0.000   0.000   0.000
    1 13 3Pdx2-y2   0.05071   0.00000     -0.000   0.000  -0.000
    1     Total     4.00070   0.00000      0.000   0.000   0.000

    2  1 2s         0.80756   0.00000     -0.000   0.000  -0.000
    2  2 2s         0.18729   0.00000      0.000   0.000   0.000
    2  3 2py        0.70460   0.00000     -0.000   0.000   0.000
    2  4 2pz        0.79746   0.00001     -0.000   0.000  -0.000
    2  5 2px        0.80315   0.00000     -0.000   0.000   0.000
    2  6 2py        0.23592   0.00000      0.000   0.000  -0.000
    2  7 2pz        0.20250   0.00001      0.000   0.000   0.000
    2  8 2px        0.14561   0.00000      0.000   0.000  -0.000
    2  9 3Pdxy      0.05939   0.00000     -0.000   0.000  -0.000
    2 10 3Pdyz      0.00000   0.00000      0.000   0.000  -0.000
    2 11 3Pdz2      0.00510   0.00000     -0.000   0.000   0.000
    2 12 3Pdxz      0.00004   0.00000      0.000   0.000   0.000
    2 13 3Pdx2-y2   0.05070   0.00000      0.000   0.000  -0.000
    2     Total     3.99930   0.00000     -0.000   0.000  -0.000

----------------------------------------------------------------
Total               8.00000   0.00000     -0.000   0.000   0.000


SCF Convergence by DM+H criterion
max |DM_out - DM_in|         :     0.0000039794
max |H_out - H_in|      (eV) :     0.0002817141
SCF cycle converged after 10 iterations

Using DM_out to compute the final energy and forces
No. of atoms with KB's overlaping orbs in proc 0. Max # of overlaps:       2     151

Hirshfeld Atomic Populations:
Atom #     dQatom  Atom pop         S        Sx        Sy        Sz  Species
     1   -0.00000   4.00000   0.00000  -0.00000   0.00000   0.00000  C
     2    0.00001   3.99999   0.00000   0.00000   0.00000  -0.00000  C
-------------------------------------------------------------------
 Total                        0.00000  -0.00000   0.00000   0.00000

Voronoi Atomic Populations:
Atom #     dQatom  Atom pop         S        Sx        Sy        Sz  Species
     1   -0.03157   4.03157   0.00000  -0.00000   0.00000   0.00000  C
     2    0.03157   3.96843   0.00000   0.00000   0.00000  -0.00000  C
-------------------------------------------------------------------
 Total                        0.00000  -0.00000   0.00000   0.00000
 

siesta: E_KS(eV) =             -318.8876

siesta: E_KS - E_eggbox =      -318.8876
     spin moment: {S} , |S| = {   -0.00000    0.00000    0.00000 }     0.00000

siesta: Atomic forces (eV/Ang):
----------------------------------------
   Tot   -0.016146   -0.000000   -0.000000
----------------------------------------
   Max    5.089627
   Res    2.933841    sqrt( Sum f_i^2 / 3N )
----------------------------------------
   Max    5.089627    constrained

Stress tensor Voigt[x,y,z,yz,xz,xy] (kbar):     -126.47      -56.97        0.04        0.00        0.00       -0.00
(Free)E + p*V (eV/cell)     -316.0492
Target enthalpy (eV/cell)     -318.8876

mulliken: Atomic and Orbital Populations:

Species: C                   

Atom      Orb        Charge      Spin       Svec
----------------------------------------------------------------
    1  1 2s         0.80933   0.00000      0.000   0.000  -0.000
    1  2 2s         0.18663   0.00000     -0.000   0.000   0.000
    1  3 2py        0.70277   0.00000     -0.000   0.000   0.000
    1  4 2pz        0.79749   0.00001     -0.000   0.000  -0.000
    1  5 2px        0.80258   0.00000      0.000   0.000   0.000
    1  6 2py        0.23788   0.00000      0.000   0.000  -0.000
    1  7 2pz        0.20249   0.00001      0.000   0.000   0.000
    1  8 2px        0.14624   0.00000     -0.000   0.000  -0.000
    1  9 3Pdxy      0.05944   0.00000      0.000   0.000  -0.000
    1 10 3Pdyz      0.00000   0.00000     -0.000   0.000  -0.000
    1 11 3Pdz2      0.00511   0.00000      0.000   0.000   0.000
    1 12 3Pdxz      0.00004   0.00000     -0.000   0.000   0.000
    1 13 3Pdx2-y2   0.05071   0.00000     -0.000   0.000  -0.000
    1     Total     4.00070   0.00000      0.000   0.000   0.000

    2  1 2s         0.80756   0.00000     -0.000   0.000  -0.000
    2  2 2s         0.18729   0.00000      0.000   0.000   0.000
    2  3 2py        0.70460   0.00000     -0.000   0.000   0.000
    2  4 2pz        0.79746   0.00001     -0.000   0.000  -0.000
    2  5 2px        0.80315   0.00000     -0.000   0.000   0.000
    2  6 2py        0.23592   0.00000      0.000   0.000  -0.000
    2  7 2pz        0.20250   0.00001      0.000   0.000   0.000
    2  8 2px        0.14561   0.00000      0.000   0.000  -0.000
    2  9 3Pdxy      0.05939   0.00000     -0.000   0.000  -0.000
    2 10 3Pdyz      0.00000   0.00000      0.000   0.000  -0.000
    2 11 3Pdz2      0.00510   0.00000     -0.000   0.000   0.000
    2 12 3Pdxz      0.00004   0.00000      0.000   0.000   0.000
    2 13 3Pdx2-y2   0.05070   0.00000      0.000   0.000  -0.000
    2     Total     3.99930   0.00000     -0.000   0.000  -0.000

----------------------------------------------------------------
Total               8.00000   0.00000     -0.000   0.000   0.000


                     ====================================
                        Begin CG opt. move =      1
                     ====================================

outcell: Unit cell vectors (Ang):
        2.130000    1.229756    0.000000
        2.130000   -1.229756    0.000000
        0.000000    0.000000   14.200000

outcell: Cell vector modules (Ang)   :    2.459512    2.459512   14.200000
outcell: Cell angles (23,13,12) (deg):     90.0000     90.0000     60.0000
outcell: Cell volume (Ang**3)        :     74.3904
Gamma-point calculation with interaction between periodic images
Some features might not work optimally:
e.g. DM initialization from atomic data
<dSpData1D:S at geom step 1
  <sparsity:sparsity for geom step 1
    nrows_g=26 nrows=26 sparsity=1.0000 nnzs=676, refcount: 7>
  <dData1D:(new from dSpData1D) n=676, refcount: 1>
refcount: 1>
new_DM -- step:     2
Re-using DM from previous geometries...
Number of DMs in history: 1
 DM extrapolation coefficients: 
1   1.00000
New DM after history re-use:
<dSpData2D:SpM extrapolated using coords
  <sparsity:sparsity for geom step 1
    nrows_g=26 nrows=26 sparsity=1.0000 nnzs=676, refcount: 9>
  <dData2D:(temp array for extrapolation) n=676 m=4, refcount: 1>
refcount: 1>
     spin moment: {S} , |S| = {   -0.00000    0.00000    0.00000 }     0.00000
Note: For starting DM, Qtot, Tr[D*S] =          8.00000000          7.98364893
No. of atoms with KB's overlaping orbs in proc 0. Max # of overlaps:       2     151

InitMesh: MESH = 24 x 24 x 150 = 86400
InitMesh: Mesh cutoff (required, used) =   300.000   308.395 Ry
New grid distribution [1]: sub = 2

Hirshfeld Atomic Populations:
Atom #     dQatom  Atom pop         S        Sx        Sy        Sz  Species
     1    0.00000   4.00000   0.00000  -0.00000   0.00000   0.00000  C
     2    0.00001   3.99999   0.00000   0.00000   0.00000   0.00000  C
-------------------------------------------------------------------
 Total                        0.00000  -0.00000   0.00000   0.00000

Voronoi Atomic Populations:
Atom #     dQatom  Atom pop         S        Sx        Sy        Sz  Species
     1   -0.01860   4.01860   0.00000  -0.00000   0.00000   0.00000  C
     2    0.01860   3.98140   0.00000   0.00000   0.00000  -0.00000  C
-------------------------------------------------------------------
 Total                        0.00000  -0.00000   0.00000   0.00000
 

Hirshfeld Atomic Populations:
Atom #     dQatom  Atom pop         S        Sx        Sy        Sz  Species
     1    0.00002   3.99998   0.00000  -0.00000   0.00000   0.00000  C
     2   -0.00001   4.00001   0.00000   0.00000   0.00000  -0.00000  C
-------------------------------------------------------------------
 Total                        0.00000  -0.00000   0.00000   0.00000

Voronoi Atomic Populations:
Atom #     dQatom  Atom pop         S        Sx        Sy        Sz  Species
     1   -0.01303   4.01303   0.00000  -0.00000   0.00000   0.00000  C
     2    0.01303   3.98697   0.00000   0.00000   0.00000  -0.00000  C
-------------------------------------------------------------------
 Total                        0.00000  -0.00000   0.00000   0.00000
 

        iscf     Eharris(eV)        E_KS(eV)     FreeEng(eV)     dDmax    Ef(eV) dHmax(eV)
   scf:    1     -317.515643     -318.287565     -318.287565  0.156753 -2.019419  0.433206
     spin moment: {S} , |S| = {   -0.00000    0.00000    0.00000 }     0.00000

Using DM_out for analysis:

mulliken: Atomic and Orbital Populations:

Species: C                   

Atom      Orb        Charge      Spin       Svec
----------------------------------------------------------------
    1  1 2s         0.80631   0.00000     -0.000   0.000  -0.000
    1  2 2s         0.19167   0.00000      0.000   0.000   0.000
    1  3 2py        0.88165   0.00000     -0.000   0.000  -0.000
    1  4 2pz        0.79505   0.00000     -0.000   0.000  -0.000
    1  5 2px        0.61676   0.00000     -0.000   0.000  -0.000
    1  6 2py        0.07832   0.00000      0.000   0.000   0.000
    1  7 2pz        0.20491   0.00000      0.000   0.000   0.000
    1  8 2px        0.31058   0.00000     -0.000   0.000   0.000
    1  9 3Pdxy      0.03996   0.00000      0.000   0.000  -0.000
    1 10 3Pdyz      0.00000   0.00000     -0.000   0.000  -0.000
    1 11 3Pdz2      0.00444   0.00000     -0.000   0.000   0.000
    1 12 3Pdxz      0.00001   0.00000     -0.000   0.000   0.000
    1 13 3Pdx2-y2   0.07047   0.00000      0.000   0.000  -0.000
    1     Total     4.00013   0.00000     -0.000   0.000   0.000

    2  1 2s         0.80589   0.00000      0.000   0.000  -0.000
    2  2 2s         0.19187   0.00000     -0.000   0.000   0.000
    2  3 2py        0.88008   0.00000      0.000   0.000  -0.000
    2  4 2pz        0.79516   0.00000      0.000   0.000  -0.000
    2  5 2px        0.61973   0.00000      0.000   0.000  -0.000
    2  6 2py        0.08002   0.00000     -0.000   0.000   0.000
    2  7 2pz        0.20485   0.00000     -0.000   0.000   0.000
    2  8 2px        0.30745   0.00000      0.000   0.000   0.000
    2  9 3Pdxy      0.03998   0.00000     -0.000   0.000  -0.000
    2 10 3Pdyz      0.00000   0.00000     -0.000   0.000  -0.000
    2 11 3Pdz2      0.00444   0.00000     -0.000   0.000   0.000
    2 12 3Pdxz      0.00001   0.00000     -0.000   0.000   0.000
    2 13 3Pdx2-y2   0.07038   0.00000     -0.000   0.000  -0.000
    2     Total     3.99987   0.00000      0.000   0.000  -0.000

----------------------------------------------------------------
Total               8.00000   0.00000     -0.000   0.000   0.000


Hirshfeld Atomic Populations:
Atom #     dQatom  Atom pop         S        Sx        Sy        Sz  Species
     1   -0.00002   4.00002   0.00000  -0.00000   0.00000   0.00000  C
     2    0.00002   3.99998   0.00000   0.00000   0.00000  -0.00000  C
-------------------------------------------------------------------
 Total                        0.00000  -0.00000   0.00000  -0.00000

Voronoi Atomic Populations:
Atom #     dQatom  Atom pop         S        Sx        Sy        Sz  Species
     1   -0.01407   4.01407   0.00000  -0.00000   0.00000   0.00000  C
     2    0.01407   3.98593   0.00000   0.00000   0.00000  -0.00000  C
-------------------------------------------------------------------
 Total                        0.00000  -0.00000   0.00000   0.00000
 

        iscf     Eharris(eV)        E_KS(eV)     FreeEng(eV)     dDmax    Ef(eV) dHmax(eV)
   scf:    2     -318.308432     -318.300353     -318.300353  0.017446 -2.039778  0.120237
     spin moment: {S} , |S| = {   -0.00000    0.00000    0.00000 }     0.00000

Using DM_out for analysis:

mulliken: Atomic and Orbital Populations:

Species: C                   

Atom      Orb        Charge      Spin       Svec
----------------------------------------------------------------
    1  1 2s         0.80747   0.00000      0.000   0.000  -0.000
    1  2 2s         0.19269   0.00000     -0.000   0.000   0.000
    1  3 2py        0.88522   0.00000     -0.000   0.000  -0.000
    1  4 2pz        0.79186   0.00000      0.000   0.000  -0.000
    1  5 2px        0.63406   0.00000     -0.000   0.000   0.000
    1  6 2py        0.06956   0.00000      0.000   0.000   0.000
    1  7 2pz        0.20790   0.00000     -0.000   0.000   0.000
    1  8 2px        0.29679   0.00000      0.000   0.000   0.000
    1  9 3Pdxy      0.04516   0.00000     -0.000   0.000  -0.000
    1 10 3Pdyz      0.00000   0.00000     -0.000   0.000   0.000
    1 11 3Pdz2      0.00397   0.00000      0.000   0.000   0.000
    1 12 3Pdxz      0.00024   0.00000     -0.000   0.000   0.000
    1 13 3Pdx2-y2   0.06527   0.00000      0.000   0.000  -0.000
    1     Total     4.00019   0.00000      0.000   0.000   0.000

    2  1 2s         0.80709   0.00000     -0.000   0.000  -0.000
    2  2 2s         0.19287   0.00000      0.000   0.000   0.000
    2  3 2py        0.88364   0.00000     -0.000   0.000  -0.000
    2  4 2pz        0.79193   0.00000     -0.000   0.000  -0.000
    2  5 2px        0.63700   0.00000      0.000   0.000  -0.000
    2  6 2py        0.07124   0.00000      0.000   0.000   0.000
    2  7 2pz        0.20785   0.00000      0.000   0.000   0.000
    2  8 2px        0.29361   0.00000      0.000   0.000   0.000
    2  9 3Pdxy      0.04518   0.00000      0.000   0.000  -0.000
    2 10 3Pdyz      0.00000   0.00000      0.000   0.000   0.000
    2 11 3Pdz2      0.00397   0.00000     -0.000   0.000   0.000
    2 12 3Pdxz      0.00023   0.00000      0.000   0.000   0.000
    2 13 3Pdx2-y2   0.06519   0.00000     -0.000   0.000  -0.000
    2     Total     3.99981   0.00000     -0.000   0.000  -0.000

----------------------------------------------------------------
Total               8.00000   0.00000     -0.000   0.000  -0.000


Hirshfeld Atomic Populations:
Atom #     dQatom  Atom pop         S        Sx        Sy        Sz  Species
     1    0.00000   4.00000   0.00000  -0.00000   0.00000   0.00000  C
     2    0.00000   4.00000   0.00000   0.00000   0.00000  -0.00000  C
-------------------------------------------------------------------
 Total                        0.00000   0.00000   0.00000   0.00000

Voronoi Atomic Populations:
Atom #     dQatom  Atom pop         S        Sx        Sy        Sz  Species
     1   -0.01383   4.01383   0.00000  -0.00000   0.00000   0.00000  C
     2    0.01383   3.98617   0.00000   0.00000   0.00000  -0.00000  C
-------------------------------------------------------------------
 Total                        0.00000   0.00000   0.00000   0.00000
 

        iscf     Eharris(eV)        E_KS(eV)     FreeEng(eV)     dDmax    Ef(eV) dHmax(eV)
   scf:    3     -318.302156     -318.301363     -318.301363  0.003653 -2.032813  0.010570
     spin moment: {S} , |S| = {    0.00000    0.00000    0.00000 }     0.00000

Using DM_out for analysis:

mulliken: Atomic and Orbital Populations:

Species: C                   

Atom      Orb        Charge      Spin       Svec
----------------------------------------------------------------
    1  1 2s         0.80712   0.00000      0.000   0.000  -0.000
    1  2 2s         0.19251   0.00000     -0.000   0.000   0.000
    1  3 2py        0.88453   0.00000     -0.000   0.000  -0.000
    1  4 2pz        0.79257   0.00000      0.000   0.000  -0.000
    1  5 2px        0.63050   0.00000      0.000   0.000   0.000
    1  6 2py        0.07135   0.00000     -0.000   0.000   0.000
    1  7 2pz        0.20723   0.00000     -0.000   0.000   0.000
    1  8 2px        0.29963   0.00000      0.000   0.000   0.000
    1  9 3Pdxy      0.04405   0.00000      0.000   0.000  -0.000
    1 10 3Pdyz      0.00000   0.00000     -0.000   0.000   0.000
    1 11 3Pdz2      0.00407   0.00000      0.000   0.000   0.000
    1 12 3Pdxz      0.00018   0.00000     -0.000   0.000   0.000
    1 13 3Pdx2-y2   0.06641   0.00000     -0.000   0.000  -0.000
    1     Total     4.00016   0.00000      0.000   0.000   0.000

    2  1 2s         0.80673   0.00000     -0.000   0.000  -0.000
    2  2 2s         0.19270   0.00000      0.000   0.000   0.000
    2  3 2py        0.88296   0.00000      0.000   0.000  -0.000
    2  4 2pz        0.79266   0.00000     -0.000   0.000  -0.000
    2  5 2px        0.63346   0.00000     -0.000   0.000  -0.000
    2  6 2py        0.07303   0.00000     -0.000   0.000   0.000
    2  7 2pz        0.20718   0.00000      0.000   0.000   0.000
    2  8 2px        0.29647   0.00000     -0.000   0.000   0.000
    2  9 3Pdxy      0.04407   0.00000     -0.000   0.000  -0.000
    2 10 3Pdyz      0.00000   0.00000     -0.000   0.000  -0.000
    2 11 3Pdz2      0.00407   0.00000     -0.000   0.000   0.000
    2 12 3Pdxz      0.00018   0.00000     -0.000   0.000   0.000
    2 13 3Pdx2-y2   0.06633   0.00000      0.000   0.000  -0.000
    2     Total     3.99984   0.00000     -0.000   0.000  -0.000

----------------------------------------------------------------
Total               8.00000   0.00000      0.000   0.000   0.000


Hirshfeld Atomic Populations:
Atom #     dQatom  Atom pop         S        Sx        Sy        Sz  Species
     1    0.00000   4.00000   0.00000  -0.00000   0.00000   0.00000  C
     2    0.00000   4.00000   0.00000  -0.00000   0.00000  -0.00000  C
-------------------------------------------------------------------
 Total                        0.00000  -0.00000   0.00000   0.00000

Voronoi Atomic Populations:
Atom #     dQatom  Atom pop         S        Sx        Sy        Sz  Species
     1   -0.01383   4.01383   0.00000  -0.00000   0.00000   0.00000  C
     2    0.01383   3.98617   0.00000   0.00000   0.00000  -0.00000  C
-------------------------------------------------------------------
 Total                        0.00000  -0.00000   0.00000   0.00000
 

        iscf     Eharris(eV)        E_KS(eV)     FreeEng(eV)     dDmax    Ef(eV) dHmax(eV)
   scf:    4     -318.301367     -318.301365     -318.301365  0.000050 -2.031787  0.007581
     spin moment: {S} , |S| = {   -0.00000    0.00000    0.00000 }     0.00000

Using DM_out for analysis:

mulliken: Atomic and Orbital Populations:

Species: C                   

Atom      Orb        Charge      Spin       Svec
----------------------------------------------------------------
    1  1 2s         0.80714   0.00000      0.000   0.000  -0.000
    1  2 2s         0.19250   0.00000     -0.000   0.000   0.000
    1  3 2py        0.88457   0.00000     -0.000   0.000  -0.000
    1  4 2pz        0.79259   0.00000      0.000   0.000  -0.000
    1  5 2px        0.63054   0.00000     -0.000   0.000   0.000
    1  6 2py        0.07131   0.00000      0.000   0.000   0.000
    1  7 2pz        0.20721   0.00000     -0.000   0.000   0.000
    1  8 2px        0.29956   0.00000     -0.000   0.000   0.000
    1  9 3Pdxy      0.04405   0.00000     -0.000   0.000  -0.000
    1 10 3Pdyz      0.00000   0.00000      0.000   0.000   0.000
    1 11 3Pdz2      0.00407   0.00000      0.000   0.000   0.000
    1 12 3Pdxz      0.00018   0.00000      0.000   0.000   0.000
    1 13 3Pdx2-y2   0.06644   0.00000      0.000   0.000  -0.000
    1     Total     4.00015   0.00000      0.000   0.000   0.000

    2  1 2s         0.80674   0.00000     -0.000   0.000  -0.000
    2  2 2s         0.19269   0.00000      0.000   0.000   0.000
    2  3 2py        0.88300   0.00000      0.000   0.000  -0.000
    2  4 2pz        0.79268   0.00000     -0.000   0.000  -0.000
    2  5 2px        0.63351   0.00000      0.000   0.000  -0.000
    2  6 2py        0.07300   0.00000     -0.000   0.000   0.000
    2  7 2pz        0.20716   0.00000      0.000   0.000   0.000
    2  8 2px        0.29640   0.00000      0.000   0.000   0.000
    2  9 3Pdxy      0.04407   0.00000      0.000   0.000  -0.000
    2 10 3Pdyz      0.00000   0.00000      0.000   0.000  -0.000
    2 11 3Pdz2      0.00407   0.00000     -0.000   0.000   0.000
    2 12 3Pdxz      0.00018   0.00000      0.000   0.000   0.000
    2 13 3Pdx2-y2   0.06635   0.00000     -0.000   0.000  -0.000
    2     Total     3.99985   0.00000     -0.000   0.000  -0.000

----------------------------------------------------------------
Total               8.00000   0.00000     -0.000   0.000   0.000


Hirshfeld Atomic Populations:
Atom #     dQatom  Atom pop         S        Sx        Sy        Sz  Species
     1    0.00001   3.99999   0.00000  -0.00000   0.00000   0.00000  C
     2   -0.00000   4.00000   0.00000   0.00000   0.00000  -0.00000  C
-------------------------------------------------------------------
 Total                        0.00000   0.00000   0.00000   0.00000

Voronoi Atomic Populations:
Atom #     dQatom  Atom pop         S        Sx        Sy        Sz  Species
     1   -0.01382   4.01382   0.00000  -0.00000   0.00000   0.00000  C
     2    0.01383   3.98617   0.00000   0.00000   0.00000  -0.00000  C
-------------------------------------------------------------------
 Total                        0.00000   0.00000   0.00000   0.00000
 

        iscf     Eharris(eV)        E_KS(eV)     FreeEng(eV)     dDmax    Ef(eV) dHmax(eV)
   scf:    5     -318.301369     -318.301367     -318.301367  0.000128 -2.029317  0.000680
     spin moment: {S} , |S| = {    0.00000    0.00000    0.00000 }     0.00000

Using DM_out for analysis:

mulliken: Atomic and Orbital Populations:

Species: C                   

Atom      Orb        Charge      Spin       Svec
----------------------------------------------------------------
    1  1 2s         0.80717   0.00000     -0.000   0.000  -0.000
    1  2 2s         0.19247   0.00000      0.000   0.000   0.000
    1  3 2py        0.88468   0.00000     -0.000   0.000  -0.000
    1  4 2pz        0.79265   0.00000     -0.000   0.000  -0.000
    1  5 2px        0.63064   0.00000     -0.000   0.000   0.000
    1  6 2py        0.07122   0.00000      0.000   0.000   0.000
    1  7 2pz        0.20715   0.00000      0.000   0.000   0.000
    1  8 2px        0.29939   0.00000      0.000   0.000   0.000
    1  9 3Pdxy      0.04403   0.00000     -0.000   0.000  -0.000
    1 10 3Pdyz      0.00000   0.00000     -0.000   0.000  -0.000
    1 11 3Pdz2      0.00407   0.00000     -0.000   0.000   0.000
    1 12 3Pdxz      0.00018   0.00000     -0.000   0.000   0.000
    1 13 3Pdx2-y2   0.06650   0.00000     -0.000   0.000  -0.000
    1     Total     4.00015   0.00000     -0.000   0.000   0.000

    2  1 2s         0.80678   0.00000      0.000   0.000  -0.000
    2  2 2s         0.19266   0.00000     -0.000   0.000   0.000
    2  3 2py        0.88311   0.00000      0.000   0.000  -0.000
    2  4 2pz        0.79275   0.00000      0.000   0.000  -0.000
    2  5 2px        0.63361   0.00000      0.000   0.000  -0.000
    2  6 2py        0.07291   0.00000     -0.000   0.000   0.000
    2  7 2pz        0.20710   0.00000     -0.000   0.000   0.000
    2  8 2px        0.29623   0.00000     -0.000   0.000   0.000
    2  9 3Pdxy      0.04405   0.00000      0.000   0.000  -0.000
    2 10 3Pdyz      0.00000   0.00000      0.000   0.000   0.000
    2 11 3Pdz2      0.00407   0.00000      0.000   0.000   0.000
    2 12 3Pdxz      0.00018   0.00000      0.000   0.000   0.000
    2 13 3Pdx2-y2   0.06641   0.00000      0.000   0.000  -0.000
    2     Total     3.99985   0.00000      0.000   0.000  -0.000

----------------------------------------------------------------
Total               8.00000   0.00000      0.000   0.000   0.000


Hirshfeld Atomic Populations:
Atom #     dQatom  Atom pop         S        Sx        Sy        Sz  Species
     1    0.00001   3.99999   0.00000   0.00000   0.00000   0.00000  C
     2   -0.00000   4.00000   0.00000  -0.00000   0.00000  -0.00000  C
-------------------------------------------------------------------
 Total                        0.00000   0.00000   0.00000   0.00000

Voronoi Atomic Populations:
Atom #     dQatom  Atom pop         S        Sx        Sy        Sz  Species
     1   -0.01383   4.01383   0.00000   0.00000   0.00000   0.00000  C
     2    0.01383   3.98617   0.00000  -0.00000   0.00000  -0.00000  C
-------------------------------------------------------------------
 Total                        0.00000   0.00000   0.00000   0.00000
 

        iscf     Eharris(eV)        E_KS(eV)     FreeEng(eV)     dDmax    Ef(eV) dHmax(eV)
   scf:    6     -318.301367     -318.301367     -318.301367  0.000006 -2.029339  0.000467
     spin moment: {S} , |S| = {    0.00000    0.00000    0.00000 }     0.00000

Using DM_out for analysis:

mulliken: Atomic and Orbital Populations:

Species: C                   

Atom      Orb        Charge      Spin       Svec
----------------------------------------------------------------
    1  1 2s         0.80717   0.00000      0.000   0.000  -0.000
    1  2 2s         0.19247   0.00000      0.000   0.000   0.000
    1  3 2py        0.88468   0.00000      0.000   0.000  -0.000
    1  4 2pz        0.79265   0.00000     -0.000   0.000  -0.000
    1  5 2px        0.63064   0.00000     -0.000   0.000   0.000
    1  6 2py        0.07122   0.00000     -0.000   0.000   0.000
    1  7 2pz        0.20715   0.00000      0.000   0.000   0.000
    1  8 2px        0.29938   0.00000      0.000   0.000   0.000
    1  9 3Pdxy      0.04403   0.00000     -0.000   0.000  -0.000
    1 10 3Pdyz      0.00000   0.00000     -0.000   0.000  -0.000
    1 11 3Pdz2      0.00407   0.00000     -0.000   0.000   0.000
    1 12 3Pdxz      0.00018   0.00000      0.000   0.000   0.000
    1 13 3Pdx2-y2   0.06650   0.00000     -0.000   0.000  -0.000
    1     Total     4.00015   0.00000      0.000   0.000   0.000

    2  1 2s         0.80678   0.00000     -0.000   0.000  -0.000
    2  2 2s         0.19266   0.00000      0.000   0.000   0.000
    2  3 2py        0.88311   0.00000      0.000   0.000  -0.000
    2  4 2pz        0.79274   0.00000      0.000   0.000  -0.000
    2  5 2px        0.63361   0.00000     -0.000   0.000  -0.000
    2  6 2py        0.07290   0.00000     -0.000   0.000   0.000
    2  7 2pz        0.20710   0.00000     -0.000   0.000   0.000
    2  8 2px        0.29623   0.00000     -0.000   0.000   0.000
    2  9 3Pdxy      0.04405   0.00000      0.000   0.000  -0.000
    2 10 3Pdyz      0.00000   0.00000     -0.000   0.000   0.000
    2 11 3Pdz2      0.00407   0.00000      0.000   0.000   0.000
    2 12 3Pdxz      0.00018   0.00000     -0.000   0.000   0.000
    2 13 3Pdx2-y2   0.06641   0.00000      0.000   0.000  -0.000
    2     Total     3.99985   0.00000     -0.000   0.000  -0.000

----------------------------------------------------------------
Total               8.00000   0.00000      0.000   0.000   0.000


SCF Convergence by DM+H criterion
max |DM_out - DM_in|         :     0.0000055232
max |H_out - H_in|      (eV) :     0.0004673470
SCF cycle converged after 6 iterations

Using DM_out to compute the final energy and forces
No. of atoms with KB's overlaping orbs in proc 0. Max # of overlaps:       2     151

Hirshfeld Atomic Populations:
Atom #     dQatom  Atom pop         S        Sx        Sy        Sz  Species
     1    0.00001   3.99999   0.00000   0.00000   0.00000   0.00000  C
     2   -0.00000   4.00000   0.00000  -0.00000   0.00000  -0.00000  C
-------------------------------------------------------------------
 Total                        0.00000   0.00000   0.00000   0.00000

Voronoi Atomic Populations:
Atom #     dQatom  Atom pop         S        Sx        Sy        Sz  Species
     1   -0.01383   4.01383   0.00000   0.00000   0.00000   0.00000  C
     2    0.01383   3.98617   0.00000  -0.00000   0.00000  -0.00000  C
-------------------------------------------------------------------
 Total                        0.00000   0.00000   0.00000   0.00000
 

siesta: E_KS(eV) =             -318.3014
     spin moment: {S} , |S| = {    0.00000    0.00000    0.00000 }     0.00000

siesta: Atomic forces (eV/Ang):
----------------------------------------
   Tot    0.019703    0.000000    0.000000
----------------------------------------
   Max   12.128253
   Res    6.996565    sqrt( Sum f_i^2 / 3N )
----------------------------------------
   Max   12.128253    constrained

Stress tensor Voigt[x,y,z,yz,xz,xy] (kbar):      -13.36     -210.79        0.04        0.00        0.00       -0.00
(Free)E + p*V (eV/cell)     -314.8328
Target enthalpy (eV/cell)     -318.3014

mulliken: Atomic and Orbital Populations:

Species: C                   

Atom      Orb        Charge      Spin       Svec
----------------------------------------------------------------
    1  1 2s         0.80717   0.00000      0.000   0.000  -0.000
    1  2 2s         0.19247   0.00000      0.000   0.000   0.000
    1  3 2py        0.88468   0.00000      0.000   0.000  -0.000
    1  4 2pz        0.79265   0.00000     -0.000   0.000  -0.000
    1  5 2px        0.63064   0.00000     -0.000   0.000   0.000
    1  6 2py        0.07122   0.00000     -0.000   0.000   0.000
    1  7 2pz        0.20715   0.00000      0.000   0.000   0.000
    1  8 2px        0.29938   0.00000      0.000   0.000   0.000
    1  9 3Pdxy      0.04403   0.00000     -0.000   0.000  -0.000
    1 10 3Pdyz      0.00000   0.00000     -0.000   0.000  -0.000
    1 11 3Pdz2      0.00407   0.00000     -0.000   0.000   0.000
    1 12 3Pdxz      0.00018   0.00000      0.000   0.000   0.000
    1 13 3Pdx2-y2   0.06650   0.00000     -0.000   0.000  -0.000
    1     Total     4.00015   0.00000      0.000   0.000   0.000

    2  1 2s         0.80678   0.00000     -0.000   0.000  -0.000
    2  2 2s         0.19266   0.00000      0.000   0.000   0.000
    2  3 2py        0.88311   0.00000      0.000   0.000  -0.000
    2  4 2pz        0.79274   0.00000      0.000   0.000  -0.000
    2  5 2px        0.63361   0.00000     -0.000   0.000  -0.000
    2  6 2py        0.07290   0.00000     -0.000   0.000   0.000
    2  7 2pz        0.20710   0.00000     -0.000   0.000   0.000
    2  8 2px        0.29623   0.00000     -0.000   0.000   0.000
    2  9 3Pdxy      0.04405   0.00000      0.000   0.000  -0.000
    2 10 3Pdyz      0.00000   0.00000     -0.000   0.000   0.000
    2 11 3Pdz2      0.00407   0.00000      0.000   0.000   0.000
    2 12 3Pdxz      0.00018   0.00000     -0.000   0.000   0.000
    2 13 3Pdx2-y2   0.06641   0.00000      0.000   0.000  -0.000
    2     Total     3.99985   0.00000     -0.000   0.000  -0.000

----------------------------------------------------------------
Total               8.00000   0.00000      0.000   0.000   0.000


                     ====================================
                        Begin CG opt. move =      2
                     ====================================

outcell: Unit cell vectors (Ang):
        2.130000    1.229756    0.000000
        2.130000   -1.229756    0.000000
        0.000000    0.000000   14.200000

outcell: Cell vector modules (Ang)   :    2.459512    2.459512   14.200000
outcell: Cell angles (23,13,12) (deg):     90.0000     90.0000     60.0000
outcell: Cell volume (Ang**3)        :     74.3904
Gamma-point calculation with interaction between periodic images
Some features might not work optimally:
e.g. DM initialization from atomic data
<dSpData1D:S at geom step 2
  <sparsity:sparsity for geom step 2
    nrows_g=26 nrows=26 sparsity=1.0000 nnzs=676, refcount: 7>
  <dData1D:(new from dSpData1D) n=676, refcount: 1>
refcount: 1>
new_DM -- step:     3
Re-using DM from previous geometries...
Number of DMs in history: 1
 DM extrapolation coefficients: 
1   1.00000
New DM after history re-use:
<dSpData2D:SpM extrapolated using coords
  <sparsity:sparsity for geom step 2
    nrows_g=26 nrows=26 sparsity=1.0000 nnzs=676, refcount: 9>
[...]
    2 13 3Pdx2-y2   0.05545   0.00000      0.000   0.000  -0.000
    2     Total     4.00003   0.00000      0.000   0.000  -0.000

----------------------------------------------------------------
Total               8.00000   0.00000     -0.000   0.000  -0.000


Hirshfeld Atomic Populations:
Atom #     dQatom  Atom pop         S        Sx        Sy        Sz  Species
     1    0.00001   3.99999   0.00000   0.00000   0.00000   0.00000  C
     2   -0.00000   4.00000   0.00000  -0.00000   0.00000  -0.00000  C
-------------------------------------------------------------------
 Total                        0.00000  -0.00000   0.00000   0.00000

Voronoi Atomic Populations:
Atom #     dQatom  Atom pop         S        Sx        Sy        Sz  Species
     1   -0.00428   4.00428   0.00000   0.00000   0.00000   0.00000  C
     2    0.00429   3.99571   0.00000  -0.00000   0.00000  -0.00000  C
-------------------------------------------------------------------
 Total                        0.00000  -0.00000   0.00000   0.00000
 

        iscf     Eharris(eV)        E_KS(eV)     FreeEng(eV)     dDmax    Ef(eV) dHmax(eV)
   scf:    4     -318.986930     -318.986929     -318.986929  0.000052 -2.109833  0.007947
     spin moment: {S} , |S| = {   -0.00000    0.00000   -0.00000 }     0.00000

Using DM_out for analysis:

mulliken: Atomic and Orbital Populations:

Species: C                   

Atom      Orb        Charge      Spin       Svec
----------------------------------------------------------------
    1  1 2s         0.80862   0.00000     -0.000   0.000  -0.000
    1  2 2s         0.18608   0.00000      0.000   0.000   0.000
    1  3 2py        0.75583   0.00000      0.000   0.000   0.000
    1  4 2pz        0.79825   0.00000     -0.000   0.000  -0.000
    1  5 2px        0.74695   0.00000     -0.000   0.000   0.000
    1  6 2py        0.18970   0.00000     -0.000   0.000   0.000
    1  7 2pz        0.20175   0.00000      0.000   0.000   0.000
    1  8 2px        0.19755   0.00000      0.000   0.000   0.000
    1  9 3Pdxy      0.05454   0.00000     -0.000   0.000  -0.000
    1 10 3Pdyz     -0.00000   0.00000     -0.000   0.000   0.000
    1 11 3Pdz2      0.00529   0.00000     -0.000   0.000   0.000
    1 12 3Pdxz      0.00000   0.00000      0.000   0.000   0.000
    1 13 3Pdx2-y2   0.05542   0.00000      0.000   0.000  -0.000
    1     Total     3.99999   0.00000      0.000   0.000   0.000

    2  1 2s         0.80864   0.00000     -0.000   0.000  -0.000
    2  2 2s         0.18608   0.00000      0.000   0.000   0.000
    2  3 2py        0.75737   0.00000     -0.000   0.000  -0.000
    2  4 2pz        0.79827   0.00000      0.000   0.000  -0.000
    2  5 2px        0.74555   0.00000     -0.000   0.000  -0.000
    2  6 2py        0.18805   0.00000      0.000   0.000   0.000
    2  7 2pz        0.20174   0.00000     -0.000   0.000   0.000
    2  8 2px        0.19907   0.00000     -0.000   0.000   0.000
    2  9 3Pdxy      0.05451   0.00000     -0.000   0.000  -0.000
    2 10 3Pdyz      0.00000   0.00000      0.000   0.000   0.000
    2 11 3Pdz2      0.00530   0.00000      0.000   0.000   0.000
    2 12 3Pdxz      0.00000   0.00000      0.000   0.000   0.000
    2 13 3Pdx2-y2   0.05545   0.00000     -0.000   0.000   0.000
    2     Total     4.00001   0.00000     -0.000   0.000  -0.000

----------------------------------------------------------------
Total               8.00000   0.00000     -0.000   0.000   0.000


Hirshfeld Atomic Populations:
Atom #     dQatom  Atom pop         S        Sx        Sy        Sz  Species
     1   -0.00000   4.00000   0.00000   0.00000   0.00000   0.00000  C
     2    0.00001   3.99999   0.00000  -0.00000   0.00000  -0.00000  C
-------------------------------------------------------------------
 Total                        0.00000  -0.00000   0.00000  -0.00000

Voronoi Atomic Populations:
Atom #     dQatom  Atom pop         S        Sx        Sy        Sz  Species
     1   -0.00429   4.00429   0.00000   0.00000   0.00000   0.00000  C
     2    0.00429   3.99571   0.00000  -0.00000   0.00000  -0.00000  C
-------------------------------------------------------------------
 Total                        0.00000  -0.00000   0.00000  -0.00000
 

        iscf     Eharris(eV)        E_KS(eV)     FreeEng(eV)     dDmax    Ef(eV) dHmax(eV)
   scf:    5     -318.986931     -318.986930     -318.986930  0.000108 -2.106610  0.001371
     spin moment: {S} , |S| = {   -0.00000    0.00000   -0.00000 }     0.00000

Using DM_out for analysis:

mulliken: Atomic and Orbital Populations:

Species: C                   

Atom      Orb        Charge      Spin       Svec
----------------------------------------------------------------
    1  1 2s         0.80865   0.00000     -0.000   0.000  -0.000
    1  2 2s         0.18606   0.00000      0.000   0.000   0.000
    1  3 2py        0.75574   0.00000      0.000   0.000   0.000
    1  4 2pz        0.79835   0.00000      0.000   0.000  -0.000
    1  5 2px        0.74704   0.00000      0.000   0.000   0.000
    1  6 2py        0.18978   0.00000     -0.000   0.000   0.000
    1  7 2pz        0.20165   0.00000     -0.000   0.000   0.000
    1  8 2px        0.19748   0.00000      0.000   0.000   0.000
    1  9 3Pdxy      0.05456   0.00000     -0.000   0.000  -0.000
    1 10 3Pdyz     -0.00000   0.00000      0.000   0.000  -0.000
    1 11 3Pdz2      0.00528   0.00000     -0.000   0.000   0.000
    1 12 3Pdxz      0.00000   0.00000      0.000   0.000   0.000
    1 13 3Pdx2-y2   0.05542   0.00000     -0.000   0.000  -0.000
    1     Total     4.00000   0.00000      0.000   0.000   0.000

    2  1 2s         0.80867   0.00000      0.000   0.000  -0.000
    2  2 2s         0.18606   0.00000     -0.000   0.000   0.000
    2  3 2py        0.75727   0.00000      0.000   0.000  -0.000
    2  4 2pz        0.79836   0.00000     -0.000   0.000  -0.000
    2  5 2px        0.74562   0.00000      0.000   0.000  -0.000
    2  6 2py        0.18813   0.00000     -0.000   0.000   0.000
    2  7 2pz        0.20164   0.00000      0.000   0.000   0.000
    2  8 2px        0.19899   0.00000     -0.000   0.000  -0.000
    2  9 3Pdxy      0.05452   0.00000      0.000   0.000  -0.000
    2 10 3Pdyz      0.00000   0.00000     -0.000   0.000   0.000
    2 11 3Pdz2      0.00529   0.00000      0.000   0.000  -0.000
    2 12 3Pdxz      0.00000   0.00000     -0.000   0.000  -0.000
    2 13 3Pdx2-y2   0.05545   0.00000      0.000   0.000   0.000
    2     Total     4.00000   0.00000     -0.000   0.000  -0.000

----------------------------------------------------------------
Total               8.00000   0.00000     -0.000   0.000  -0.000


Hirshfeld Atomic Populations:
Atom #     dQatom  Atom pop         S        Sx        Sy        Sz  Species
     1    0.00000   4.00000   0.00000   0.00000   0.00000   0.00000  C
     2    0.00000   4.00000   0.00000  -0.00000   0.00000  -0.00000  C
-------------------------------------------------------------------
 Total                        0.00000  -0.00000   0.00000  -0.00000

Voronoi Atomic Populations:
Atom #     dQatom  Atom pop         S        Sx        Sy        Sz  Species
     1   -0.00428   4.00428   0.00000   0.00000   0.00000   0.00000  C
     2    0.00429   3.99571   0.00000  -0.00000   0.00000  -0.00000  C
-------------------------------------------------------------------
 Total                        0.00000  -0.00000   0.00000  -0.00000
 

        iscf     Eharris(eV)        E_KS(eV)     FreeEng(eV)     dDmax    Ef(eV) dHmax(eV)
   scf:    6     -318.986930     -318.986930     -318.986930  0.000013 -2.106600  0.000968
     spin moment: {S} , |S| = {   -0.00000    0.00000   -0.00000 }     0.00000

Using DM_out for analysis:

mulliken: Atomic and Orbital Populations:

Species: C                   

Atom      Orb        Charge      Spin       Svec
----------------------------------------------------------------
    1  1 2s         0.80865   0.00000      0.000   0.000  -0.000
    1  2 2s         0.18607   0.00000     -0.000   0.000   0.000
    1  3 2py        0.75573   0.00000     -0.000   0.000   0.000
    1  4 2pz        0.79834   0.00000      0.000   0.000  -0.000
    1  5 2px        0.74705   0.00000      0.000   0.000   0.000
    1  6 2py        0.18979   0.00000      0.000   0.000   0.000
    1  7 2pz        0.20165   0.00000     -0.000   0.000   0.000
    1  8 2px        0.19746   0.00000     -0.000   0.000   0.000
    1  9 3Pdxy      0.05456   0.00000     -0.000   0.000  -0.000
    1 10 3Pdyz     -0.00000   0.00000     -0.000   0.000  -0.000
    1 11 3Pdz2      0.00528   0.00000     -0.000   0.000   0.000
    1 12 3Pdxz      0.00000   0.00000      0.000   0.000   0.000
    1 13 3Pdx2-y2   0.05542   0.00000      0.000   0.000  -0.000
    1     Total     4.00000   0.00000      0.000   0.000   0.000

    2  1 2s         0.80867   0.00000     -0.000   0.000  -0.000
    2  2 2s         0.18606   0.00000      0.000   0.000   0.000
    2  3 2py        0.75727   0.00000     -0.000   0.000  -0.000
    2  4 2pz        0.79836   0.00000     -0.000   0.000  -0.000
    2  5 2px        0.74563   0.00000      0.000   0.000  -0.000
    2  6 2py        0.18814   0.00000      0.000   0.000   0.000
    2  7 2pz        0.20164   0.00000      0.000   0.000   0.000
    2  8 2px        0.19898   0.00000     -0.000   0.000  -0.000
    2  9 3Pdxy      0.05452   0.00000      0.000   0.000  -0.000
    2 10 3Pdyz      0.00000   0.00000     -0.000   0.000   0.000
    2 11 3Pdz2      0.00529   0.00000      0.000   0.000  -0.000
    2 12 3Pdxz      0.00000   0.00000     -0.000   0.000  -0.000
    2 13 3Pdx2-y2   0.05545   0.00000      0.000   0.000   0.000
    2     Total     4.00000   0.00000     -0.000   0.000  -0.000

----------------------------------------------------------------
Total               8.00000   0.00000     -0.000   0.000   0.000


SCF Convergence by DM+H criterion
max |DM_out - DM_in|         :     0.0000130786
max |H_out - H_in|      (eV) :     0.0009680178
SCF cycle converged after 6 iterations

Using DM_out to compute the final energy and forces
No. of atoms with KB's overlaping orbs in proc 0. Max # of overlaps:       2     151

Hirshfeld Atomic Populations:
Atom #     dQatom  Atom pop         S        Sx        Sy        Sz  Species
     1    0.00000   4.00000   0.00000   0.00000   0.00000   0.00000  C
     2    0.00000   4.00000   0.00000  -0.00000   0.00000  -0.00000  C
-------------------------------------------------------------------
 Total                        0.00000  -0.00000   0.00000  -0.00000

Voronoi Atomic Populations:
Atom #     dQatom  Atom pop         S        Sx        Sy        Sz  Species
     1   -0.00428   4.00428   0.00000   0.00000   0.00000   0.00000  C
     2    0.00429   3.99571   0.00000  -0.00000   0.00000  -0.00000  C
-------------------------------------------------------------------
 Total                        0.00000  -0.00000   0.00000  -0.00000
 

siesta: E_KS(eV) =             -318.9869
     spin moment: {S} , |S| = {   -0.00000    0.00000   -0.00000 }     0.00000

siesta: Atomic forces (eV/Ang):
----------------------------------------
   Tot    0.010503   -0.000000   -0.000000
----------------------------------------
   Max    0.519554
   Res    0.296948    sqrt( Sum f_i^2 / 3N )
----------------------------------------
   Max    0.519554    constrained

Stress tensor Voigt[x,y,z,yz,xz,xy] (kbar):      -86.02      -92.59        0.03        0.00        0.00       -0.00
(Free)E + p*V (eV/cell)     -316.2231
Target enthalpy (eV/cell)     -318.9869

mulliken: Atomic and Orbital Populations:

Species: C                   

Atom      Orb        Charge      Spin       Svec
----------------------------------------------------------------
    1  1 2s         0.80865   0.00000      0.000   0.000  -0.000
    1  2 2s         0.18607   0.00000     -0.000   0.000   0.000
    1  3 2py        0.75573   0.00000     -0.000   0.000   0.000
    1  4 2pz        0.79834   0.00000      0.000   0.000  -0.000
    1  5 2px        0.74705   0.00000      0.000   0.000   0.000
    1  6 2py        0.18979   0.00000      0.000   0.000   0.000
    1  7 2pz        0.20165   0.00000     -0.000   0.000   0.000
    1  8 2px        0.19746   0.00000     -0.000   0.000   0.000
    1  9 3Pdxy      0.05456   0.00000     -0.000   0.000  -0.000
    1 10 3Pdyz     -0.00000   0.00000     -0.000   0.000  -0.000
    1 11 3Pdz2      0.00528   0.00000     -0.000   0.000   0.000
    1 12 3Pdxz      0.00000   0.00000      0.000   0.000   0.000
    1 13 3Pdx2-y2   0.05542   0.00000      0.000   0.000  -0.000
    1     Total     4.00000   0.00000      0.000   0.000   0.000

    2  1 2s         0.80867   0.00000     -0.000   0.000  -0.000
    2  2 2s         0.18606   0.00000      0.000   0.000   0.000
    2  3 2py        0.75727   0.00000     -0.000   0.000  -0.000
    2  4 2pz        0.79836   0.00000     -0.000   0.000  -0.000
    2  5 2px        0.74563   0.00000      0.000   0.000  -0.000
    2  6 2py        0.18814   0.00000      0.000   0.000   0.000
    2  7 2pz        0.20164   0.00000      0.000   0.000   0.000
    2  8 2px        0.19898   0.00000     -0.000   0.000  -0.000
    2  9 3Pdxy      0.05452   0.00000      0.000   0.000  -0.000
    2 10 3Pdyz      0.00000   0.00000     -0.000   0.000   0.000
    2 11 3Pdz2      0.00529   0.00000      0.000   0.000  -0.000
    2 12 3Pdxz      0.00000   0.00000     -0.000   0.000  -0.000
    2 13 3Pdx2-y2   0.05545   0.00000      0.000   0.000   0.000
    2     Total     4.00000   0.00000     -0.000   0.000  -0.000

----------------------------------------------------------------
Total               8.00000   0.00000     -0.000   0.000   0.000


cgvc: Finished line minimization    1.  Mean atomic displacement =    0.0418

outcoor: Final (unrelaxed) atomic coordinates (Ang):        
   -0.02214495   -0.00000000   -0.00000000   1       1  C
    1.40207469   -0.00000000   -0.00000000   1       2  C

siesta: Program's energy decomposition (eV):
siesta: Ebs     =       -99.367835
siesta: Eions   =       564.310478
siesta: Ena     =       150.787390
siesta: Ekin    =       253.050395
siesta: Enl     =       -26.231344
siesta: Eso     =         0.000000
siesta: Edftu   =         0.000000
siesta: DEna    =       -17.210484
siesta: DUscf   =         2.158960
siesta: DUext   =         0.000000
siesta: Ex      =      -103.327807
siesta: Ec      =       -13.903562
siesta: Exc     =      -117.231369
siesta: EbV     =         0.000000
siesta: eta*DQ  =         0.000000
siesta: Emadel  =         0.000000
siesta: Emeta   =         0.000000
siesta: Emolmec =         0.000000
siesta: Ekinion =         0.000000
siesta: Eharris =      -318.986930
siesta: Etot    =      -318.986930
siesta: FreeEng =      -318.986930

siesta: Final energy (eV):
siesta:  Band Struct. =     -99.367835
siesta:       Kinetic =     253.050395
siesta:       Hartree =    1023.813533
siesta:         Edftu =       0.000000
siesta:       Eso     =       0.000000
siesta:    Ext. field =       0.000000
siesta:         Exch. =    -103.327807
siesta:         Corr. =     -13.903562
siesta:     Bulk bias =       0.000000
siesta:   Exch.-corr. =    -117.231369
siesta:  Ion-electron =   -2270.512856
siesta:       Ion-ion =     791.893367
siesta:       Ekinion =       0.000000
siesta: D3 dispersion =       0.000000
siesta:         Total =    -318.986930
siesta:         Fermi =      -2.106600

siesta: Atomic forces (eV/Ang):
siesta:      1    0.519554    0.000000    0.000000
siesta:      2   -0.509050   -0.000000   -0.000000
siesta: ----------------------------------------
siesta:    Tot    0.010503   -0.000000   -0.000000

siesta: Stress tensor (static) (eV/Ang**3):
siesta:    -0.053689   -0.000000    0.000000
siesta:    -0.000000   -0.057788   -0.000000
siesta:     0.000000    0.000000    0.000020

siesta: Cell volume =         74.390404 Ang**3

siesta: Pressure (static):
siesta:                Solid            Molecule  Units
siesta:           0.00040464          0.00044039  Ry/Bohr**3
siesta:           0.03715243          0.04043457  eV/Ang**3
siesta:          59.52476097         64.78332581  kBar
(Free)E+ p_basis*V_orbitals  =        -318.205234
(Free)Eharris+ p_basis*V_orbitals  =        -318.205234
     spin moment: {S} , |S| = {   -0.00000    0.00000   -0.00000 }     0.00000

siesta: Electric dipole (a.u.)  =    0.000000    0.000000   -0.000000
siesta: Electric dipole (Debye) =    0.000000    0.000000   -0.000000

cite: Please see "siesta.bib" for an exhaustive BiBTeX file.
cite: Please clearly indicate Siesta version in published work: NO_VERSION_LABEL_AVAILABLE
cite: This calculation has made use of the following articles
cite: which are encouraged to be cited in a published work.
        Primary SIESTA paper
          DOI: www.doi.org/10.1088/0953-8984/14/11/302


timer: Elapsed wall time (sec) =      26.293
timer: CPU execution times (sec):

Routine            Calls   Time/call    Tot.time        %
siesta                 1      29.908      29.908   100.00
Setup                  1       0.092       0.092     0.31
bands                  1       0.000       0.000     0.00
KSV_init               1       0.000       0.000     0.00
IterGeom               3       9.938      29.814    99.69
geom_init              3       0.934       2.802     9.37
state_init             3       0.035       0.104     0.35
hsparse                3       0.001       0.002     0.01
overlap                3       0.033       0.099     0.33
Setup_H0               3       0.265       0.796     2.66
naefs                  6       0.000       0.001     0.00
MolMec                 6       0.000       0.000     0.00
kinefsm                6       0.018       0.111     0.37
nlefsm                 6       0.018       0.111     0.37
DHSCF_Init             3       0.203       0.608     2.03
DHSCF1                 3       0.022       0.067     0.22
INITMESH               3       0.000       0.000     0.00
DHSCF2                 3       0.180       0.541     1.81
REMESH                 3       0.009       0.026     0.09
REORD                424       0.000       0.043     0.15
PHION                  3       0.146       0.439     1.47
COMM_BSC             606       0.000       0.054     0.18
POISON                31       0.009       0.279     0.93
fft                   62       0.004       0.243     0.81
setup_H               25       0.761      19.021    63.60
DHSCF                 28       0.983      27.526    92.04
DHSCF3                28       0.750      21.012    70.26
rhoofd                28       0.308       8.612    28.79
partial-charges       28       0.185       5.175    17.30
XC                    28       0.010       0.281     0.94
GXC-CellXC            28       0.009       0.241     0.80
gridxc@cellXC         28       0.009       0.240     0.80
vmat                  28       0.230       6.441    21.54
IterSCF               22       0.839      18.454    61.70
compute_dm            22       0.060       1.328     4.44
diagon                22       0.059       1.309     4.38
cdiag                 22       0.059       1.303     4.36
cdiag1                22       0.000       0.001     0.00
cdiag2                22       0.057       1.257     4.20
cdiag3                22       0.002       0.042     0.14
cdiag4                22       0.000       0.003     0.01
MIXER                 19       0.000       0.001     0.00
PostSCF                3       2.852       8.555    28.61
DHSCF4                 3       2.171       6.514    21.78
dfscf                  3       2.152       6.455    21.58
overfsm                3       0.004       0.011     0.04
writeHSX               3       0.000       0.000     0.00
state_analysis         3       0.000       0.001     0.00
siesta_move            3       0.000       0.000     0.00
Analysis               1       0.001       0.001     0.00
optical                1       0.000       0.000     0.00
  

>> End of run:  23-APR-2024  17:43:29
Job completed
