Siesta Version  : NO_VERSION_LABEL_AVAILABLE
Architecture    : ----
Compiler version: GNU-13.2.1
Compiler flags  : -fallow-argument-mismatch;-O3 -march=native
PP flags        : ----
Libraries       : ----
Parallelisations: MPI
GEMM3M support
NetCDF support
NetCDF-4 support

Runtime information:
* Directory : /home/arnold/Documents/Code/SIESTA/ahkole-sisl-files/tests/sisl/io/siesta/stdout-charges/mulliken_voronoi_hirshfeld_soc_md_scf
* Running in serial mode (only 1 MPI rank).
>> Start of run:  23-APR-2024  16:28:48

                           *********************** 
                           *  WELCOME TO SIESTA  * 
                           *********************** 

reinit: Reading from standard input
reinit: Dumping input in INPUT_TMP.76217
************************** Dump of input data file ****************************
LatticeConstant 1.0 Ang
%block LatticeVectors
 2.13000000 1.22975607 0.00000000
 2.13000000 -1.22975607 0.00000000
 0.00000000 0.00000000 14.20000000
%endblock LatticeVectors
NumberOfAtoms 2
AtomicCoordinatesFormat Ang
%block AtomicCoordinatesAndAtomicSpecies
 0.00000000 0.00000000 0.00000000 1 # 1: C
 1.38000000 0.00000000 0.00000000 1 # 2: C
%endblock AtomicCoordinatesAndAtomicSpecies
NumberOfSpecies 1
%block ChemicalSpeciesLabel
 1 6 C
%endblock ChemicalSpeciesLabel
MD.TypeOfRun cg
MD.Steps 2
WriteHirshfeldPop t
WriteVoronoiPop t
PartialChargesAtEveryGeometry t
PartialChargesAtEverySCFStep t
Spin spin-orbit
WriteMullikenPop 1
MullikenInSCF t
Write.DMHS.History.NetCDF t
************************** End of input data file *****************************

reinit: -----------------------------------------------------------------------
reinit: System Name: 
reinit: -----------------------------------------------------------------------
reinit: System Label: siesta
reinit: -----------------------------------------------------------------------

initatom: Reading input for the pseudopotentials and atomic orbitals ----------
Species number:   1 Atomic number:    6 Label: C


---- Processing specs for species: C
Ground state valence configuration:   2s02  2p02
Reading pseudopotential information in PSML from:
  C.psml
PSML file version: 1.1
Using libxc ids:  101 130
GGA--PBE XC_GGA_X_PBE--XC_GGA_C_PBE pb
PSML uuid: 87620340-470b-11e8-5ed8-8e87ed7edbb4

---- Pseudopotential check for C 

Pseudopotential generated from a fully relativistic atomic calculation
There are spin-orbit semi-local pseudopotentials available

Pseudized shells:
2s( 2.00) rc: 1.20
2p( 2.00) rc: 1.26
Valence configuration for ps generation: 2s:2p: Total charge:   4.000000
For C, standard SIESTA heuristics set lmxkb to 3
 (one more than the basis l, including polarization orbitals).
Use PS.lmax or PS.KBprojectors blocks to override.
C pseudopotential only contains V_ls up to l=1 -- lmxkb reset.

<basis_specs>
===============================================================================
C                    Z=   6    Mass=  12.011        Charge= 0.17977+309
Lmxo=2 Lmxkb= 1    BasisType=split      Semic=F
L=0  Nsemic=0  Cnfigmx=2
          i=1  nzeta=2  polorb=0  (2s)
            splnorm:   0.15000    
               vcte:    40.000    
               rinn:  -0.90000    
               qcoe:    0.0000    
               qyuk:    0.0000    
               qwid:   0.10000E-01
                rcs:    0.0000      0.0000    
            lambdas:    1.0000      1.0000    
L=1  Nsemic=0  Cnfigmx=2
          i=1  nzeta=2  polorb=1  (2p)  (to be polarized perturbatively)
            splnorm:   0.15000    
               vcte:    40.000    
               rinn:  -0.90000    
               qcoe:    0.0000    
               qyuk:    0.0000    
               qwid:   0.10000E-01
                rcs:    0.0000      0.0000    
            lambdas:    1.0000      1.0000    
L=2  Nsemic=0  Cnfigmx=3
          i=1  nzeta=0  polorb=0  (3d)  (perturbative polarization orbital) (from 2p)
-------------------------------------------------------------------------------
L=0  Nkbl=1  erefs: 0.17977+309
L=1  Nkbl=1  erefs: 0.17977+309
===============================================================================
</basis_specs>

Using PAO.SplitTailNorm
atom: Called for C                     (Z =   6)
NOTE: C pseudopotential has channels up to l= 1
NOTE: PAOs with higher l will be generated with V_local
Maximum radius (at nrval) set to   50.00000 8518

read_vps: Pseudopotential generation method:
read_vps: ONCVPSP-3.Hamann's oncvpsp                        
Valence charge in pseudo generation:    4.00000

read_vps: Pseudopotential includes a core correction:
read_vps: Pseudo-core for xc-correction

xc_check: Exchange-correlation functional:
xc_check: Ceperley-Alder
xc_check: WARNING: Pseudopotential generated with GGA PBE functional
Got Vlocal (oncv-fit) from psml data
Choosing vlocal chloc cutoff:  3.131907
qtot up to nchloc:    4.00001913
atom: Maximum radius for chlocal:    3.13191
atom: Maximum radius for r*vlocal+2*Zval:    3.13191
Reading KB projs from C psml data
Using lj projectors in PSML file

PSML: Kleinman-Bylander projectors: 
   l= 0   rc=  1.219773   Ekb=  0.771050
   l= 0   rc=  1.219773   Ekb= 12.962866
j- l= 1   rc=  1.278952   Ekb= -8.408637
j+ l= 1   rc=  1.278952   Ekb= -8.395455
j- l= 1   rc=  1.278952   Ekb= -1.756800
j+ l= 1   rc=  1.278952   Ekb= -1.754100

PSML: Total number of  Kleinman-Bylander projectors:  14
atom: -------------------------------------------------------------------------

atom: SANKEY-TYPE ORBITALS:
atom: Selected multiple-zeta basis: split     

SPLIT: Orbitals with angular momentum L= 0

SPLIT: Basis orbitals for state 2s

SPLIT: PAO cut-off radius determined from an
SPLIT: energy shift=  0.010000 Ry
Split based on tail norm

   izeta = 1
                 lambda =    1.000000
                     rc =    4.511437
                 energy =   -0.989120
                kinetic =    0.946579
    potential(screened) =   -1.935699
       potential(ionic) =   -5.498314

   izeta = 2
                 rmatch =    3.075858
              splitnorm =    0.150000
                 energy =   -0.700820
                kinetic =    1.771753
    potential(screened) =   -2.472573
       potential(ionic) =   -6.339178

SPLIT: Orbitals with angular momentum L= 1

SPLIT: Basis orbitals for state 2p

SPLIT: PAO cut-off radius determined from an
SPLIT: energy shift=  0.010000 Ry
Split based on tail norm

   izeta = 1
                 lambda =    1.000000
                     rc =    5.490449
                 energy =   -0.369555
                kinetic =    2.447706
    potential(screened) =   -2.817262
       potential(ionic) =   -6.234860

   izeta = 2
                 rmatch =    3.744030
              splitnorm =    0.150000
                 energy =   -0.241893
                kinetic =    3.581585
    potential(screened) =   -3.823478
       potential(ionic) =   -7.591537
*Note: V_local used for l= 2

** Using vlocal for PAOs with L= 2

POLgen: Perturbative polarization orbital with L=  2

POLgen: Polarization orbital for state 2p
*Note: V_local used for lpol= 2

** Using vlocal for PAOs with L= 2
Split based on tail norm

   izeta = 1
                     rc =    5.490449
                 energy =    1.132178
                kinetic =    2.236568
    potential(screened) =   -1.104389
       potential(ionic) =   -3.924652
atom: Total number of Sankey-type orbitals: 13

atm_pop: Valence configuration (for local Pseudopot. screening):
 2s( 2.00)                                                            
 2p( 2.00)                                                            
 3d( 0.00)                                                            
Vna: chval, zval:    4.00000   4.00000

Vna:  Cut-off radius for the neutral-atom potential:   5.490449
comcore: Pseudo-core radius Rcore=  1.671741

atom: _________________________________________________________________________

prinput: Basis input 

PAO.BasisType split     

%block ChemicalSpeciesLabel
    1    6 C                       # Species index, atomic number, species label
%endblock ChemicalSpeciesLabel

%block PAO.Basis                 # Define Basis set
# WARNING: This information might be incomplete!
C                     2                    # Species label, number of l-shells
 n=2   0   2                         # n, l, Nzeta 
   4.511      3.076   
   1.000      1.000   
 n=2   1   2 P   1                   # n, l, Nzeta, Polarization, NzetaPol
   5.490      3.744   
   1.000      1.000   
%endblock PAO.Basis

prinput: ----------------------------------------------------------------------

Dumping basis to NetCDF file C.ion.nc
coor:   Atomic-coordinates input format  =     Cartesian coordinates
coor:                                          (in Angstroms)

siesta: Atomic coordinates (Bohr) and species
siesta:      0.00000   0.00000   0.00000  1        1
siesta:      2.60782   0.00000   0.00000  1        2

siesta: System type = slab      

initatomlists: Number of atoms, orbitals, and projectors:      2    26    28

siesta: ******************** Simulation parameters ****************************
siesta:
siesta: The following are some of the parameters of the simulation.
siesta: A complete list of the parameters used, including default values,
siesta: can be found in file out.fdf
siesta:
redata: Spin configuration                          = spin-orbit+offsite
redata: Number of spin components                   = 8
redata: Time-Reversal Symmetry                      = F
redata: Spin spiral                                 = F
redata: Long output                                 =   F
redata: Number of Atomic Species                    =        1
redata: Charge density info will appear in .RHO file
redata: Write Mulliken Pop.                         = Atomic and Orbital charges
redata: Matel table size (NRTAB)                    =     1024
redata: Mesh Cutoff                                 =   300.0000 Ry
redata: Net charge of the system                    =     0.0000 |e|
redata: Min. number of SCF Iter                     =        0
redata: Max. number of SCF Iter                     =     1000
redata: SCF convergence failure will abort job
redata: SCF mix quantity                            = Hamiltonian
redata: Mix DM or H after convergence               =   F
redata: Recompute H after scf cycle                 =   F
redata: Mix DM in first SCF step                    =   T
redata: Write Pulay info on disk                    =   F
redata: New DM Occupancy tolerance                  = 0.000000000001
redata: No kicks to SCF
redata: DM Mixing Weight for Kicks                  =     0.5000
redata: Require Harris convergence for SCF          =   F
redata: Harris energy tolerance for SCF             =     0.000100 eV
redata: Require DM convergence for SCF              =   T
redata: DM tolerance for SCF                        =     0.000100
redata: Require EDM convergence for SCF             =   F
redata: EDM tolerance for SCF                       =     0.001000 eV
redata: Require H convergence for SCF               =   T
redata: Hamiltonian tolerance for SCF               =     0.001000 eV
redata: Require (free) Energy convergence for SCF   =   F
redata: (free) Energy tolerance for SCF             =     0.000100 eV
redata: Using Saved Data (generic)                  =   F
redata: Use continuation files for DM               =   T
redata: Neglect nonoverlap interactions             =   F
redata: Method of Calculation                       = Diagonalization
redata: Electronic Temperature                      =   299.9863 K
redata: Fix the spin of the system                  =   F
redata: Split SR and SO contributions               =   F
redata: Max. number of TDED Iter                    =        1
redata: Number of TDED substeps                     =        3
redata: Dynamics option                             = CG coord. optimization
redata: Variable cell                               =   F
redata: Use continuation files for CG               =   F
redata: Max atomic displ per move                   =     0.1058 Ang
redata: Maximum number of optimization moves        =        2
redata: Force tolerance                             =     0.0400 eV/Ang
mix.SCF: Pulay mixing                            = Pulay
mix.SCF:    Variant                              = stable
mix.SCF:    History steps                        = 2
mix.SCF:    Linear mixing weight                 =     0.250000
mix.SCF:    Mixing weight                        =     0.250000
mix.SCF:    SVD condition                        = 0.1000E-07
mix.SCF: Spin-component mixing                   all
redata: Save all siesta data in one NC              =   F
redata: ***********************************************************************

%block SCF.Mixers
  Pulay
%endblock SCF.Mixers

%block SCF.Mixer.Pulay
  # Mixing method
  method pulay
  variant stable

  # Mixing options
  weight 0.2500
  weight.linear 0.2500
  history 2
%endblock SCF.Mixer.Pulay

DM_history_depth set to one: no extrapolation allowed by default for geometry relaxation
Size of DM history Fstack: 1
Total number of electrons:     8.000000
Total ionic charge:     8.000000

* ProcessorY, Blocksize:    1  27


* Orbital distribution balance (max,min):    26    26


siesta: k-grid: Number of k-points = 1
siesta: k-point is Gamma-only

diag: Algorithm                                     = D&C
diag: Parallel over k                               =   F
diag: Use parallel 2D distribution                  =   F
diag: Parallel block-size                           = 27
diag: Parallel distribution                         =     1 x     1
diag: Used triangular part                          = Lower
diag: Absolute tolerance                            =  0.100E-15
diag: Orthogonalization factor                      =  0.100E-05
diag: Memory factor                                 =  1.0000


ts: **************************************************************
ts: Save H and S matrices                           =    F
ts: Save DM and EDM matrices                        =    F
ts: Only save the overlap matrix S                  =    F
ts: **************************************************************

************************ Begin: TS CHECKS AND WARNINGS ************************
************************ End: TS CHECKS AND WARNINGS **************************


                     ====================================
                        Begin CG opt. move =      0
                     ====================================

outcell: Unit cell vectors (Ang):
        2.130000    1.229756    0.000000
        2.130000   -1.229756    0.000000
        0.000000    0.000000   14.200000

outcell: Cell vector modules (Ang)   :    2.459512    2.459512   14.200000
outcell: Cell angles (23,13,12) (deg):     90.0000     90.0000     60.0000
outcell: Cell volume (Ang**3)        :     74.3904
Gamma-point calculation with interaction between periodic images
Some features might not work optimally:
e.g. DM initialization from atomic data
<dSpData1D:S at geom step 0
  <sparsity:sparsity for geom step 0
    nrows_g=26 nrows=26 sparsity=1.0000 nnzs=676, refcount: 8>
  <dData1D:(new from dSpData1D) n=676, refcount: 1>
refcount: 1>
new_DM -- step:     1
Initializing Density Matrix...

Attempting to read DM from file... Succeeded...
DM from file:
<dSpData2D:IO-DM: siesta.DM
  <sparsity:IO-DM: siesta.DM
    nrows_g=26 nrows=26 sparsity=1.0000 nnzs=676, refcount: 1>
  <dData2D:(new from dSpData2D) n=676 m=8, refcount: 1>
refcount: 1>
DM to be used:
<dSpData2D:Re-structured SpM
  <sparsity:sparsity for geom step 0
    nrows_g=26 nrows=26 sparsity=1.0000 nnzs=676, refcount: 9>
  <dData2D:(new in restruct) n=676 m=8, refcount: 1>
refcount: 1>
     spin moment: {S} , |S| = {   -0.00000   -0.00000   -0.00000 }     0.00000

InitMesh: MESH = 24 x 24 x 150 = 86400
InitMesh: Mesh cutoff (required, used) =   300.000   308.395 Ry
New grid distribution [1]: sub = 2

Hirshfeld Atomic Populations:
Atom #     dQatom  Atom pop         S        Sx        Sy        Sz  Species
     1   -0.00001   4.00001   0.00000  -0.00000  -0.00000   0.00000  C
     2    0.00001   3.99999   0.00000   0.00000   0.00000  -0.00000  C
-------------------------------------------------------------------
 Total                        0.00000  -0.00000  -0.00000   0.00000

Voronoi Atomic Populations:
Atom #     dQatom  Atom pop         S        Sx        Sy        Sz  Species
     1   -0.02921   4.02921   0.00000  -0.00000  -0.00000   0.00000  C
     2    0.02922   3.97078   0.00000   0.00000   0.00000  -0.00000  C
-------------------------------------------------------------------
 Total                        0.00000  -0.00000  -0.00000  -0.00000
 

stepf: Fermi-Dirac step function

Hirshfeld Atomic Populations:
Atom #     dQatom  Atom pop         S        Sx        Sy        Sz  Species
     1    0.00001   3.99999   0.00000  -0.00000   0.00000   0.00000  C
     2   -0.00000   4.00000   0.00000   0.00000  -0.00000  -0.00000  C
-------------------------------------------------------------------
 Total                        0.00000   0.00000  -0.00000  -0.00000

Voronoi Atomic Populations:
Atom #     dQatom  Atom pop         S        Sx        Sy        Sz  Species
     1   -0.03193   4.03193   0.00000  -0.00000   0.00000   0.00000  C
     2    0.03194   3.96806   0.00000   0.00000  -0.00000  -0.00000  C
-------------------------------------------------------------------
 Total                        0.00000   0.00000  -0.00000   0.00000
 

siesta: Program's energy decomposition (eV):
siesta: Ebs     =       -99.350039
siesta: Eions   =       564.310478
siesta: Ena     =       150.800224
siesta: Ekin    =       253.183868
siesta: Enl(+so)=       -26.237943
siesta: Eso(nil)=         0.000000
siesta: Edftu   =         0.000000
siesta: DEna    =       -17.238979
siesta: DUscf   =         2.162240
siesta: DUext   =         0.000000
siesta: Ex      =      -103.341116
siesta: Ec      =       -13.904138
siesta: Exc     =      -117.245254
siesta: EbV     =         0.000000
siesta: eta*DQ  =         0.000000
siesta: Emadel  =         0.000000
siesta: Emeta   =         0.000000
siesta: Emolmec =         0.000000
siesta: Ekinion =         0.000000
siesta: Eharris =      -318.796066
siesta: Etot    =      -318.886321
siesta: FreeEng =      -318.886321

        iscf     Eharris(eV)        E_KS(eV)     FreeEng(eV)     dDmax    Ef(eV) dHmax(eV)
   scf:    1     -318.796066     -318.886321     -318.886321  0.050854 -2.097953  0.143700
     spin moment: {S} , |S| = {    0.00000   -0.00000    0.00000 }     0.00000

Using DM_out for analysis:

mulliken: Atomic and Orbital Populations:

Species: C                   

Atom      Orb        Charge      Spin       Svec
----------------------------------------------------------------
    1  1 2s         0.80913   0.00000      0.000  -0.000  -0.000
    1  2 2s         0.18663   0.00000     -0.000   0.000   0.000
    1  3 2py        0.70224   0.00000     -0.000   0.000   0.000
    1  4 2pz        0.79762   0.00000     -0.000  -0.000   0.000
    1  5 2px        0.80156   0.00000      0.000  -0.000   0.000
    1  6 2py        0.23692   0.00000      0.000  -0.000   0.000
    1  7 2pz        0.20237   0.00000      0.000   0.000   0.000
    1  8 2px        0.14884   0.00000      0.000   0.000  -0.000
    1  9 3Pdxy      0.06092   0.00000      0.000   0.000  -0.000
    1 10 3Pdyz      0.00000   0.00000      0.000   0.000   0.000
    1 11 3Pdz2      0.00517   0.00000      0.000  -0.000   0.000
    1 12 3Pdxz      0.00001   0.00000     -0.000   0.000  -0.000
    1 13 3Pdx2-y2   0.04925   0.00000     -0.000   0.000  -0.000
    1     Total     4.00068   0.00000      0.000  -0.000   0.000

    2  1 2s         0.80736   0.00000     -0.000   0.000  -0.000
    2  2 2s         0.18730   0.00000      0.000  -0.000  -0.000
    2  3 2py        0.70408   0.00000      0.000   0.000  -0.000
    2  4 2pz        0.79761   0.00000      0.000  -0.000  -0.000
    2  5 2px        0.80214   0.00000      0.000   0.000  -0.000
    2  6 2py        0.23496   0.00000      0.000  -0.000  -0.000
    2  7 2pz        0.20238   0.00000     -0.000   0.000   0.000
    2  8 2px        0.14822   0.00000     -0.000  -0.000  -0.000
    2  9 3Pdxy      0.06087   0.00000     -0.000   0.000   0.000
    2 10 3Pdyz      0.00000   0.00000     -0.000   0.000   0.000
    2 11 3Pdz2      0.00516   0.00000     -0.000   0.000  -0.000
    2 12 3Pdxz      0.00001   0.00000     -0.000  -0.000   0.000
    2 13 3Pdx2-y2   0.04923   0.00000      0.000  -0.000   0.000
    2     Total     3.99932   0.00000     -0.000  -0.000  -0.000

----------------------------------------------------------------
Total               8.00000   0.00000      0.000  -0.000   0.000

timer: Routine,Calls,Time,% = IterSCF        1       0.891  36.96

Hirshfeld Atomic Populations:
Atom #     dQatom  Atom pop         S        Sx        Sy        Sz  Species
     1   -0.00002   4.00002   0.00000   0.00000   0.00000   0.00000  C
     2    0.00003   3.99997   0.00000   0.00000  -0.00000  -0.00000  C
-------------------------------------------------------------------
 Total                        0.00000   0.00000   0.00000  -0.00000

Voronoi Atomic Populations:
Atom #     dQatom  Atom pop         S        Sx        Sy        Sz  Species
     1   -0.03149   4.03149   0.00000  -0.00000   0.00000   0.00000  C
     2    0.03150   3.96850   0.00000   0.00000  -0.00000  -0.00000  C
-------------------------------------------------------------------
 Total                        0.00000   0.00000   0.00000   0.00000
 

        iscf     Eharris(eV)        E_KS(eV)     FreeEng(eV)     dDmax    Ef(eV) dHmax(eV)
   scf:    2     -318.888287     -318.887537     -318.887537  0.004276 -2.096559  0.040860
     spin moment: {S} , |S| = {    0.00000    0.00000    0.00000 }     0.00000

Using DM_out for analysis:

mulliken: Atomic and Orbital Populations:

Species: C                   

Atom      Orb        Charge      Spin       Svec
----------------------------------------------------------------
    1  1 2s         0.80938   0.00000     -0.000  -0.000  -0.000
    1  2 2s         0.18663   0.00000     -0.000   0.000   0.000
    1  3 2py        0.70305   0.00000     -0.000   0.000   0.000
    1  4 2pz        0.79744   0.00000     -0.000  -0.000   0.000
    1  5 2px        0.80268   0.00000      0.000  -0.000   0.000
    1  6 2py        0.23805   0.00000      0.000  -0.000   0.000
    1  7 2pz        0.20253   0.00000      0.000   0.000   0.000
    1  8 2px        0.14569   0.00000     -0.000   0.000  -0.000
    1  9 3Pdxy      0.05900   0.00000     -0.000   0.000  -0.000
    1 10 3Pdyz      0.00000   0.00000      0.000  -0.000   0.000
    1 11 3Pdz2      0.00509   0.00000      0.000   0.000   0.000
    1 12 3Pdxz      0.00004   0.00000      0.000  -0.000  -0.000
    1 13 3Pdx2-y2   0.05114   0.00000     -0.000  -0.000  -0.000
    1     Total     4.00073   0.00000     -0.000   0.000   0.000

    2  1 2s         0.80763   0.00000      0.000  -0.000   0.000
    2  2 2s         0.18728   0.00000     -0.000  -0.000  -0.000
    2  3 2py        0.70486   0.00000     -0.000   0.000  -0.000
    2  4 2pz        0.79740   0.00000      0.000  -0.000  -0.000
    2  5 2px        0.80323   0.00000     -0.000  -0.000  -0.000
    2  6 2py        0.23608   0.00000      0.000  -0.000  -0.000
    2  7 2pz        0.20254   0.00000     -0.000   0.000   0.000
    2  8 2px        0.14505   0.00000      0.000   0.000  -0.000
    2  9 3Pdxy      0.05895   0.00000      0.000   0.000   0.000
    2 10 3Pdyz      0.00000   0.00000     -0.000  -0.000   0.000
    2 11 3Pdz2      0.00509   0.00000     -0.000  -0.000  -0.000
    2 12 3Pdxz      0.00004   0.00000     -0.000   0.000   0.000
    2 13 3Pdx2-y2   0.05112   0.00000      0.000  -0.000   0.000
    2     Total     3.99927   0.00000      0.000  -0.000  -0.000

----------------------------------------------------------------
Total               8.00000   0.00000      0.000   0.000   0.000


Hirshfeld Atomic Populations:
Atom #     dQatom  Atom pop         S        Sx        Sy        Sz  Species
     1   -0.00001   4.00001   0.00000  -0.00000   0.00000   0.00000  C
     2    0.00001   3.99999   0.00000   0.00000  -0.00000  -0.00000  C
-------------------------------------------------------------------
 Total                        0.00000  -0.00000  -0.00000  -0.00000

Voronoi Atomic Populations:
Atom #     dQatom  Atom pop         S        Sx        Sy        Sz  Species
     1   -0.03157   4.03157   0.00000  -0.00000   0.00000   0.00000  C
     2    0.03158   3.96842   0.00000   0.00000  -0.00000  -0.00000  C
-------------------------------------------------------------------
 Total                        0.00000  -0.00000  -0.00000  -0.00000
 

        iscf     Eharris(eV)        E_KS(eV)     FreeEng(eV)     dDmax    Ef(eV) dHmax(eV)
   scf:    3     -318.887718     -318.887639     -318.887639  0.000922 -2.096529  0.002305
     spin moment: {S} , |S| = {   -0.00000   -0.00000   -0.00000 }     0.00000

Using DM_out for analysis:

mulliken: Atomic and Orbital Populations:

Species: C                   

Atom      Orb        Charge      Spin       Svec
----------------------------------------------------------------
    1  1 2s         0.80932   0.00000      0.000   0.000  -0.000
    1  2 2s         0.18663   0.00000     -0.000  -0.000   0.000
    1  3 2py        0.70285   0.00000     -0.000  -0.000   0.000
    1  4 2pz        0.79749   0.00000     -0.000   0.000   0.000
    1  5 2px        0.80247   0.00000      0.000   0.000   0.000
    1  6 2py        0.23783   0.00000      0.000   0.000   0.000
    1  7 2pz        0.20249   0.00000      0.000   0.000   0.000
    1  8 2px        0.14634   0.00000     -0.000  -0.000  -0.000
    1  9 3Pdxy      0.05943   0.00000      0.000  -0.000  -0.000
    1 10 3Pdyz      0.00000   0.00000      0.000  -0.000   0.000
    1 11 3Pdz2      0.00511   0.00000     -0.000  -0.000   0.000
    1 12 3Pdxz      0.00004   0.00000      0.000  -0.000  -0.000
    1 13 3Pdx2-y2   0.05072   0.00000     -0.000  -0.000  -0.000
    1     Total     4.00070   0.00000      0.000   0.000   0.000

    2  1 2s         0.80756   0.00000     -0.000  -0.000  -0.000
    2  2 2s         0.18729   0.00000      0.000   0.000  -0.000
    2  3 2py        0.70467   0.00000     -0.000  -0.000  -0.000
    2  4 2pz        0.79746   0.00000      0.000  -0.000  -0.000
    2  5 2px        0.80303   0.00000     -0.000  -0.000  -0.000
    2  6 2py        0.23586   0.00000      0.000   0.000  -0.000
    2  7 2pz        0.20250   0.00000      0.000   0.000   0.000
    2  8 2px        0.14571   0.00000      0.000   0.000  -0.000
    2  9 3Pdxy      0.05937   0.00000     -0.000   0.000   0.000
    2 10 3Pdyz      0.00000   0.00000     -0.000  -0.000   0.000
    2 11 3Pdz2      0.00510   0.00000     -0.000   0.000  -0.000
    2 12 3Pdxz      0.00004   0.00000     -0.000   0.000   0.000
    2 13 3Pdx2-y2   0.05071   0.00000     -0.000   0.000   0.000
    2     Total     3.99930   0.00000     -0.000  -0.000  -0.000

----------------------------------------------------------------
Total               8.00000   0.00000     -0.000  -0.000  -0.000


Hirshfeld Atomic Populations:
Atom #     dQatom  Atom pop         S        Sx        Sy        Sz  Species
     1   -0.00000   4.00000   0.00000  -0.00000   0.00000   0.00000  C
     2    0.00001   3.99999   0.00000   0.00000  -0.00000  -0.00000  C
-------------------------------------------------------------------
 Total                        0.00000  -0.00000  -0.00000  -0.00000

Voronoi Atomic Populations:
Atom #     dQatom  Atom pop         S        Sx        Sy        Sz  Species
     1   -0.03157   4.03157   0.00000  -0.00000   0.00000   0.00000  C
     2    0.03157   3.96843   0.00000   0.00000  -0.00000  -0.00000  C
-------------------------------------------------------------------
 Total                        0.00000  -0.00000  -0.00000  -0.00000
 

        iscf     Eharris(eV)        E_KS(eV)     FreeEng(eV)     dDmax    Ef(eV) dHmax(eV)
   scf:    4     -318.887639     -318.887639     -318.887639  0.000032 -2.096423  0.001679
     spin moment: {S} , |S| = {   -0.00000   -0.00000   -0.00000 }     0.00000

Using DM_out for analysis:

mulliken: Atomic and Orbital Populations:

Species: C                   

Atom      Orb        Charge      Spin       Svec
----------------------------------------------------------------
    1  1 2s         0.80933   0.00000     -0.000  -0.000  -0.000
    1  2 2s         0.18663   0.00000     -0.000   0.000   0.000
    1  3 2py        0.70282   0.00000     -0.000   0.000   0.000
    1  4 2pz        0.79749   0.00000      0.000  -0.000   0.000
    1  5 2px        0.80249   0.00000      0.000   0.000   0.000
    1  6 2py        0.23784   0.00000      0.000  -0.000   0.000
    1  7 2pz        0.20249   0.00000     -0.000   0.000   0.000
    1  8 2px        0.14632   0.00000     -0.000  -0.000  -0.000
    1  9 3Pdxy      0.05943   0.00000      0.000  -0.000  -0.000
    1 10 3Pdyz      0.00000   0.00000      0.000  -0.000   0.000
    1 11 3Pdz2      0.00511   0.00000      0.000   0.000   0.000
    1 12 3Pdxz      0.00004   0.00000     -0.000   0.000  -0.000
    1 13 3Pdx2-y2   0.05072   0.00000     -0.000   0.000  -0.000
    1     Total     4.00070   0.00000     -0.000   0.000   0.000

    2  1 2s         0.80756   0.00000      0.000  -0.000  -0.000
    2  2 2s         0.18729   0.00000     -0.000  -0.000  -0.000
    2  3 2py        0.70465   0.00000      0.000  -0.000  -0.000
    2  4 2pz        0.79746   0.00000     -0.000   0.000  -0.000
    2  5 2px        0.80306   0.00000     -0.000  -0.000  -0.000
    2  6 2py        0.23587   0.00000     -0.000  -0.000  -0.000
    2  7 2pz        0.20250   0.00000      0.000  -0.000   0.000
    2  8 2px        0.14569   0.00000      0.000   0.000  -0.000
    2  9 3Pdxy      0.05938   0.00000     -0.000   0.000   0.000
    2 10 3Pdyz      0.00000   0.00000     -0.000  -0.000   0.000
    2 11 3Pdz2      0.00510   0.00000      0.000   0.000  -0.000
    2 12 3Pdxz      0.00004   0.00000      0.000  -0.000   0.000
    2 13 3Pdx2-y2   0.05070   0.00000      0.000  -0.000   0.000
    2     Total     3.99930   0.00000      0.000  -0.000  -0.000

----------------------------------------------------------------
Total               8.00000   0.00000     -0.000  -0.000  -0.000


Hirshfeld Atomic Populations:
Atom #     dQatom  Atom pop         S        Sx        Sy        Sz  Species
     1   -0.00000   4.00000   0.00000  -0.00000  -0.00000   0.00000  C
     2    0.00001   3.99999   0.00000  -0.00000   0.00000  -0.00000  C
-------------------------------------------------------------------
 Total                        0.00000  -0.00000   0.00000  -0.00000

Voronoi Atomic Populations:
Atom #     dQatom  Atom pop         S        Sx        Sy        Sz  Species
     1   -0.03156   4.03156   0.00000  -0.00000  -0.00000   0.00000  C
     2    0.03157   3.96843   0.00000  -0.00000   0.00000  -0.00000  C
-------------------------------------------------------------------
 Total                        0.00000  -0.00000   0.00000  -0.00000
 

        iscf     Eharris(eV)        E_KS(eV)     FreeEng(eV)     dDmax    Ef(eV) dHmax(eV)
   scf:    5     -318.887639     -318.887639     -318.887639  0.000088 -2.096154  0.000172
     spin moment: {S} , |S| = {   -0.00000    0.00000   -0.00000 }     0.00000

Using DM_out for analysis:

mulliken: Atomic and Orbital Populations:

Species: C                   

Atom      Orb        Charge      Spin       Svec
----------------------------------------------------------------
    1  1 2s         0.80933   0.00000      0.000  -0.000  -0.000
    1  2 2s         0.18662   0.00000     -0.000   0.000   0.000
    1  3 2py        0.70276   0.00000     -0.000  -0.000   0.000
    1  4 2pz        0.79749   0.00000      0.000  -0.000   0.000
    1  5 2px        0.80257   0.00000      0.000  -0.000  -0.000
    1  6 2py        0.23789   0.00000      0.000   0.000   0.000
    1  7 2pz        0.20248   0.00000     -0.000   0.000  -0.000
    1  8 2px        0.14625   0.00000     -0.000  -0.000   0.000
    1  9 3Pdxy      0.05944   0.00000     -0.000  -0.000  -0.000
    1 10 3Pdyz      0.00000   0.00000      0.000   0.000   0.000
    1 11 3Pdz2      0.00511   0.00000      0.000   0.000   0.000
    1 12 3Pdxz      0.00004   0.00000     -0.000  -0.000  -0.000
    1 13 3Pdx2-y2   0.05071   0.00000     -0.000   0.000  -0.000
    1     Total     4.00069   0.00000     -0.000  -0.000   0.000

    2  1 2s         0.80756   0.00000      0.000   0.000   0.000
    2  2 2s         0.18728   0.00000     -0.000  -0.000  -0.000
    2  3 2py        0.70460   0.00000      0.000  -0.000   0.000
    2  4 2pz        0.79747   0.00000     -0.000  -0.000  -0.000
    2  5 2px        0.80314   0.00000     -0.000   0.000   0.000
    2  6 2py        0.23592   0.00000     -0.000   0.000  -0.000
    2  7 2pz        0.20249   0.00000     -0.000   0.000   0.000
    2  8 2px        0.14562   0.00000      0.000   0.000  -0.000
    2  9 3Pdxy      0.05939   0.00000      0.000  -0.000   0.000
    2 10 3Pdyz      0.00000   0.00000     -0.000   0.000  -0.000
    2 11 3Pdz2      0.00510   0.00000     -0.000   0.000  -0.000
    2 12 3Pdxz      0.00004   0.00000     -0.000   0.000   0.000
    2 13 3Pdx2-y2   0.05070   0.00000      0.000  -0.000  -0.000
    2     Total     3.99931   0.00000     -0.000   0.000  -0.000

----------------------------------------------------------------
Total               8.00000   0.00000     -0.000   0.000  -0.000


SCF Convergence by DM+H criterion
max |DM_out - DM_in|         :     0.0000881669
max |H_out - H_in|      (eV) :     0.0001715257
SCF cycle converged after 5 iterations

Using DM_out to compute the final energy and forces

Hirshfeld Atomic Populations:
Atom #     dQatom  Atom pop         S        Sx        Sy        Sz  Species
     1   -0.00000   4.00000   0.00000  -0.00000  -0.00000   0.00000  C
     2    0.00001   3.99999   0.00000  -0.00000   0.00000  -0.00000  C
-------------------------------------------------------------------
 Total                        0.00000  -0.00000   0.00000  -0.00000

Voronoi Atomic Populations:
Atom #     dQatom  Atom pop         S        Sx        Sy        Sz  Species
     1   -0.03156   4.03156   0.00000  -0.00000  -0.00000   0.00000  C
     2    0.03157   3.96843   0.00000  -0.00000   0.00000  -0.00000  C
-------------------------------------------------------------------
 Total                        0.00000  -0.00000   0.00000  -0.00000
 

siesta: E_KS(eV) =             -318.8876

siesta: E_KS - E_eggbox =      -318.8876
     spin moment: {S} , |S| = {   -0.00000    0.00000   -0.00000 }     0.00000

siesta: Atomic forces (eV/Ang):
----------------------------------------
   Tot   -0.016146   -0.000000   -0.000000
----------------------------------------
   Max    5.089414
   Res    2.933717    sqrt( Sum f_i^2 / 3N )
----------------------------------------
   Max    5.089414    constrained

Stress tensor Voigt[x,y,z,yz,xz,xy] (kbar):     -126.48      -56.97        0.04       -0.00        0.00        0.00
(Free)E + p*V (eV/cell)     -316.0490
Target enthalpy (eV/cell)     -318.8876

mulliken: Atomic and Orbital Populations:

Species: C                   

Atom      Orb        Charge      Spin       Svec
----------------------------------------------------------------
    1  1 2s         0.80933   0.00000      0.000  -0.000  -0.000
    1  2 2s         0.18662   0.00000     -0.000   0.000   0.000
    1  3 2py        0.70276   0.00000     -0.000  -0.000   0.000
    1  4 2pz        0.79749   0.00000      0.000  -0.000   0.000
    1  5 2px        0.80257   0.00000      0.000  -0.000  -0.000
    1  6 2py        0.23789   0.00000      0.000   0.000   0.000
    1  7 2pz        0.20248   0.00000     -0.000   0.000  -0.000
    1  8 2px        0.14625   0.00000     -0.000  -0.000   0.000
    1  9 3Pdxy      0.05944   0.00000     -0.000  -0.000  -0.000
    1 10 3Pdyz      0.00000   0.00000      0.000   0.000   0.000
    1 11 3Pdz2      0.00511   0.00000      0.000   0.000   0.000
    1 12 3Pdxz      0.00004   0.00000     -0.000  -0.000  -0.000
    1 13 3Pdx2-y2   0.05071   0.00000     -0.000   0.000  -0.000
    1     Total     4.00069   0.00000     -0.000  -0.000   0.000

    2  1 2s         0.80756   0.00000      0.000   0.000   0.000
    2  2 2s         0.18728   0.00000     -0.000  -0.000  -0.000
    2  3 2py        0.70460   0.00000      0.000  -0.000   0.000
    2  4 2pz        0.79747   0.00000     -0.000  -0.000  -0.000
    2  5 2px        0.80314   0.00000     -0.000   0.000   0.000
    2  6 2py        0.23592   0.00000     -0.000   0.000  -0.000
    2  7 2pz        0.20249   0.00000     -0.000   0.000   0.000
    2  8 2px        0.14562   0.00000      0.000   0.000  -0.000
    2  9 3Pdxy      0.05939   0.00000      0.000  -0.000   0.000
    2 10 3Pdyz      0.00000   0.00000     -0.000   0.000  -0.000
    2 11 3Pdz2      0.00510   0.00000     -0.000   0.000  -0.000
    2 12 3Pdxz      0.00004   0.00000     -0.000   0.000   0.000
    2 13 3Pdx2-y2   0.05070   0.00000      0.000  -0.000  -0.000
    2     Total     3.99931   0.00000     -0.000   0.000  -0.000

----------------------------------------------------------------
Total               8.00000   0.00000     -0.000   0.000  -0.000


                     ====================================
                        Begin CG opt. move =      1
                     ====================================

outcell: Unit cell vectors (Ang):
        2.130000    1.229756    0.000000
        2.130000   -1.229756    0.000000
        0.000000    0.000000   14.200000

outcell: Cell vector modules (Ang)   :    2.459512    2.459512   14.200000
outcell: Cell angles (23,13,12) (deg):     90.0000     90.0000     60.0000
outcell: Cell volume (Ang**3)        :     74.3904
Gamma-point calculation with interaction between periodic images
Some features might not work optimally:
e.g. DM initialization from atomic data
<dSpData1D:S at geom step 1
  <sparsity:sparsity for geom step 1
    nrows_g=26 nrows=26 sparsity=1.0000 nnzs=676, refcount: 8>
  <dData1D:(new from dSpData1D) n=676, refcount: 1>
refcount: 1>
new_DM -- step:     2
Re-using DM from previous geometries...
Number of DMs in history: 1
 DM extrapolation coefficients: 
1   1.00000
New DM after history re-use:
<dSpData2D:SpM extrapolated using coords
  <sparsity:sparsity for geom step 1
    nrows_g=26 nrows=26 sparsity=1.0000 nnzs=676, refcount: 10>
  <dData2D:(temp array for extrapolation) n=676 m=8, refcount: 1>
refcount: 1>
     spin moment: {S} , |S| = {   -0.00000    0.00000   -0.00000 }     0.00000
Note: For starting DM, Qtot, Tr[D*S] =          8.00000000          7.98365017

InitMesh: MESH = 24 x 24 x 150 = 86400
InitMesh: Mesh cutoff (required, used) =   300.000   308.395 Ry
New grid distribution [1]: sub = 2

Hirshfeld Atomic Populations:
Atom #     dQatom  Atom pop         S        Sx        Sy        Sz  Species
     1    0.00000   4.00000   0.00000  -0.00000  -0.00000   0.00000  C
     2    0.00000   4.00000   0.00000  -0.00000   0.00000  -0.00000  C
-------------------------------------------------------------------
 Total                        0.00000  -0.00000   0.00000  -0.00000

Voronoi Atomic Populations:
Atom #     dQatom  Atom pop         S        Sx        Sy        Sz  Species
     1   -0.01860   4.01860   0.00000  -0.00000  -0.00000   0.00000  C
     2    0.01860   3.98140   0.00000  -0.00000   0.00000  -0.00000  C
-------------------------------------------------------------------
 Total                        0.00000  -0.00000   0.00000  -0.00000
 

Hirshfeld Atomic Populations:
Atom #     dQatom  Atom pop         S        Sx        Sy        Sz  Species
     1    0.00001   3.99999   0.00000  -0.00000   0.00000   0.00000  C
     2   -0.00001   4.00001   0.00000   0.00000  -0.00000  -0.00000  C
-------------------------------------------------------------------
 Total                        0.00000  -0.00000  -0.00000  -0.00000

Voronoi Atomic Populations:
Atom #     dQatom  Atom pop         S        Sx        Sy        Sz  Species
     1   -0.01303   4.01303   0.00000  -0.00000   0.00000   0.00000  C
     2    0.01304   3.98696   0.00000   0.00000  -0.00000  -0.00000  C
-------------------------------------------------------------------
 Total                        0.00000  -0.00000  -0.00000  -0.00000
 

        iscf     Eharris(eV)        E_KS(eV)     FreeEng(eV)     dDmax    Ef(eV) dHmax(eV)
   scf:    1     -317.515647     -318.287578     -318.287578  0.156761 -2.019478  0.433219
     spin moment: {S} , |S| = {   -0.00000   -0.00000   -0.00000 }     0.00000

Using DM_out for analysis:

mulliken: Atomic and Orbital Populations:

Species: C                   

Atom      Orb        Charge      Spin       Svec
----------------------------------------------------------------
    1  1 2s         0.80630   0.00000     -0.000  -0.000   0.000
    1  2 2s         0.19167   0.00000      0.000   0.000  -0.000
    1  3 2py        0.88165   0.00000     -0.000  -0.000   0.000
    1  4 2pz        0.79505   0.00000     -0.000  -0.000   0.000
    1  5 2px        0.61677   0.00000      0.000   0.000  -0.000
    1  6 2py        0.07831   0.00000      0.000   0.000  -0.000
    1  7 2pz        0.20491   0.00000     -0.000   0.000  -0.000
    1  8 2px        0.31058   0.00000     -0.000  -0.000   0.000
    1  9 3Pdxy      0.03996   0.00000      0.000  -0.000  -0.000
    1 10 3Pdyz      0.00000   0.00000     -0.000   0.000   0.000
    1 11 3Pdz2      0.00444   0.00000      0.000  -0.000  -0.000
    1 12 3Pdxz      0.00001   0.00000      0.000   0.000  -0.000
    1 13 3Pdx2-y2   0.07047   0.00000      0.000  -0.000  -0.000
    1     Total     4.00014   0.00000     -0.000   0.000   0.000

    2  1 2s         0.80589   0.00000      0.000   0.000  -0.000
    2  2 2s         0.19186   0.00000     -0.000  -0.000   0.000
    2  3 2py        0.88008   0.00000      0.000   0.000  -0.000
    2  4 2pz        0.79516   0.00000     -0.000  -0.000  -0.000
    2  5 2px        0.61973   0.00000      0.000  -0.000  -0.000
    2  6 2py        0.08002   0.00000     -0.000  -0.000   0.000
    2  7 2pz        0.20486   0.00000      0.000   0.000   0.000
    2  8 2px        0.30745   0.00000      0.000   0.000   0.000
    2  9 3Pdxy      0.03998   0.00000     -0.000   0.000   0.000
    2 10 3Pdyz      0.00000   0.00000      0.000  -0.000  -0.000
    2 11 3Pdz2      0.00444   0.00000     -0.000  -0.000   0.000
    2 12 3Pdxz      0.00001   0.00000     -0.000   0.000   0.000
    2 13 3Pdx2-y2   0.07038   0.00000      0.000   0.000  -0.000
    2     Total     3.99986   0.00000      0.000  -0.000  -0.000

----------------------------------------------------------------
Total               8.00000   0.00000     -0.000  -0.000  -0.000


Hirshfeld Atomic Populations:
Atom #     dQatom  Atom pop         S        Sx        Sy        Sz  Species
     1   -0.00001   4.00001   0.00000  -0.00000  -0.00000   0.00000  C
     2    0.00002   3.99998   0.00000  -0.00000  -0.00000  -0.00000  C
-------------------------------------------------------------------
 Total                        0.00000  -0.00000  -0.00000  -0.00000

Voronoi Atomic Populations:
Atom #     dQatom  Atom pop         S        Sx        Sy        Sz  Species
     1   -0.01406   4.01406   0.00000  -0.00000   0.00000   0.00000  C
     2    0.01406   3.98594   0.00000   0.00000  -0.00000  -0.00000  C
-------------------------------------------------------------------
 Total                        0.00000  -0.00000  -0.00000  -0.00000
 

        iscf     Eharris(eV)        E_KS(eV)     FreeEng(eV)     dDmax    Ef(eV) dHmax(eV)
   scf:    2     -318.308446     -318.300367     -318.300367  0.017450 -2.039756  0.120240
     spin moment: {S} , |S| = {   -0.00000   -0.00000   -0.00000 }     0.00000

Using DM_out for analysis:

mulliken: Atomic and Orbital Populations:

Species: C                   

Atom      Orb        Charge      Spin       Svec
----------------------------------------------------------------
    1  1 2s         0.80747   0.00000      0.000   0.000   0.000
    1  2 2s         0.19269   0.00000     -0.000  -0.000  -0.000
    1  3 2py        0.88522   0.00000     -0.000  -0.000   0.000
    1  4 2pz        0.79185   0.00000      0.000   0.000  -0.000
    1  5 2px        0.63406   0.00000      0.000   0.000   0.000
    1  6 2py        0.06956   0.00000      0.000   0.000  -0.000
    1  7 2pz        0.20790   0.00000     -0.000  -0.000   0.000
    1  8 2px        0.29679   0.00000     -0.000  -0.000   0.000
    1  9 3Pdxy      0.04516   0.00000      0.000  -0.000   0.000
    1 10 3Pdyz      0.00000   0.00000      0.000  -0.000   0.000
    1 11 3Pdz2      0.00397   0.00000      0.000  -0.000  -0.000
    1 12 3Pdxz      0.00024   0.00000     -0.000   0.000  -0.000
    1 13 3Pdx2-y2   0.06527   0.00000     -0.000   0.000  -0.000
    1     Total     4.00018   0.00000      0.000   0.000  -0.000

    2  1 2s         0.80709   0.00000     -0.000  -0.000  -0.000
    2  2 2s         0.19287   0.00000     -0.000   0.000   0.000
    2  3 2py        0.88364   0.00000      0.000   0.000  -0.000
    2  4 2pz        0.79193   0.00000     -0.000  -0.000   0.000
    2  5 2px        0.63700   0.00000     -0.000  -0.000  -0.000
    2  6 2py        0.07124   0.00000     -0.000  -0.000   0.000
    2  7 2pz        0.20785   0.00000      0.000  -0.000  -0.000
    2  8 2px        0.29361   0.00000      0.000   0.000  -0.000
    2  9 3Pdxy      0.04518   0.00000     -0.000   0.000   0.000
    2 10 3Pdyz      0.00000   0.00000      0.000  -0.000   0.000
    2 11 3Pdz2      0.00397   0.00000      0.000  -0.000   0.000
    2 12 3Pdxz      0.00023   0.00000      0.000  -0.000  -0.000
    2 13 3Pdx2-y2   0.06519   0.00000      0.000  -0.000   0.000
    2     Total     3.99982   0.00000     -0.000  -0.000   0.000

----------------------------------------------------------------
Total               8.00000   0.00000     -0.000  -0.000  -0.000


Hirshfeld Atomic Populations:
Atom #     dQatom  Atom pop         S        Sx        Sy        Sz  Species
     1    0.00000   4.00000   0.00000  -0.00000   0.00000   0.00000  C
     2    0.00000   4.00000   0.00000   0.00000   0.00000  -0.00000  C
-------------------------------------------------------------------
 Total                        0.00000  -0.00000   0.00000   0.00000

Voronoi Atomic Populations:
Atom #     dQatom  Atom pop         S        Sx        Sy        Sz  Species
     1   -0.01383   4.01383   0.00000  -0.00000   0.00000   0.00000  C
     2    0.01383   3.98617   0.00000   0.00000   0.00000  -0.00000  C
-------------------------------------------------------------------
 Total                        0.00000  -0.00000   0.00000  -0.00000
 

        iscf     Eharris(eV)        E_KS(eV)     FreeEng(eV)     dDmax    Ef(eV) dHmax(eV)
   scf:    3     -318.302170     -318.301377     -318.301377  0.003656 -2.032809  0.010553
     spin moment: {S} , |S| = {   -0.00000    0.00000   -0.00000 }     0.00000

Using DM_out for analysis:

mulliken: Atomic and Orbital Populations:

Species: C                   

Atom      Orb        Charge      Spin       Svec
----------------------------------------------------------------
    1  1 2s         0.80712   0.00000      0.000   0.000   0.000
    1  2 2s         0.19251   0.00000     -0.000  -0.000  -0.000
    1  3 2py        0.88453   0.00000     -0.000   0.000   0.000
    1  4 2pz        0.79257   0.00000     -0.000  -0.000  -0.000
    1  5 2px        0.63050   0.00000      0.000   0.000  -0.000
    1  6 2py        0.07135   0.00000      0.000  -0.000  -0.000
    1  7 2pz        0.20723   0.00000      0.000   0.000   0.000
    1  8 2px        0.29963   0.00000      0.000  -0.000   0.000
    1  9 3Pdxy      0.04405   0.00000      0.000   0.000  -0.000
    1 10 3Pdyz      0.00000   0.00000     -0.000   0.000   0.000
    1 11 3Pdz2      0.00407   0.00000      0.000  -0.000  -0.000
    1 12 3Pdxz      0.00018   0.00000     -0.000  -0.000   0.000
    1 13 3Pdx2-y2   0.06641   0.00000     -0.000  -0.000  -0.000
    1     Total     4.00016   0.00000      0.000  -0.000   0.000

    2  1 2s         0.80673   0.00000     -0.000  -0.000  -0.000
    2  2 2s         0.19270   0.00000      0.000   0.000   0.000
    2  3 2py        0.88296   0.00000     -0.000   0.000  -0.000
    2  4 2pz        0.79266   0.00000      0.000   0.000   0.000
    2  5 2px        0.63346   0.00000     -0.000  -0.000  -0.000
    2  6 2py        0.07303   0.00000      0.000  -0.000   0.000
    2  7 2pz        0.20718   0.00000      0.000  -0.000  -0.000
    2  8 2px        0.29647   0.00000     -0.000   0.000   0.000
    2  9 3Pdxy      0.04407   0.00000     -0.000  -0.000   0.000
    2 10 3Pdyz      0.00000   0.00000     -0.000  -0.000   0.000
    2 11 3Pdz2      0.00407   0.00000     -0.000  -0.000   0.000
    2 12 3Pdxz      0.00018   0.00000      0.000  -0.000  -0.000
    2 13 3Pdx2-y2   0.06633   0.00000     -0.000  -0.000  -0.000
    2     Total     3.99984   0.00000     -0.000   0.000  -0.000

----------------------------------------------------------------
Total               8.00000   0.00000     -0.000   0.000   0.000


Hirshfeld Atomic Populations:
Atom #     dQatom  Atom pop         S        Sx        Sy        Sz  Species
     1    0.00000   4.00000   0.00000   0.00000   0.00000   0.00000  C
     2    0.00000   4.00000   0.00000  -0.00000  -0.00000  -0.00000  C
-------------------------------------------------------------------
 Total                        0.00000  -0.00000  -0.00000   0.00000

Voronoi Atomic Populations:
Atom #     dQatom  Atom pop         S        Sx        Sy        Sz  Species
     1   -0.01382   4.01382   0.00000   0.00000   0.00000   0.00000  C
     2    0.01383   3.98617   0.00000  -0.00000  -0.00000  -0.00000  C
-------------------------------------------------------------------
 Total                        0.00000  -0.00000  -0.00000  -0.00000
 

        iscf     Eharris(eV)        E_KS(eV)     FreeEng(eV)     dDmax    Ef(eV) dHmax(eV)
   scf:    4     -318.301380     -318.301378     -318.301378  0.000050 -2.031785  0.007574
     spin moment: {S} , |S| = {   -0.00000   -0.00000   -0.00000 }     0.00000

Using DM_out for analysis:

mulliken: Atomic and Orbital Populations:

Species: C                   

Atom      Orb        Charge      Spin       Svec
----------------------------------------------------------------
    1  1 2s         0.80714   0.00000      0.000   0.000   0.000
    1  2 2s         0.19250   0.00000     -0.000  -0.000  -0.000
    1  3 2py        0.88457   0.00000      0.000  -0.000   0.000
    1  4 2pz        0.79259   0.00000      0.000  -0.000  -0.000
    1  5 2px        0.63054   0.00000      0.000   0.000  -0.000
    1  6 2py        0.07131   0.00000     -0.000   0.000  -0.000
    1  7 2pz        0.20721   0.00000     -0.000   0.000   0.000
    1  8 2px        0.29956   0.00000     -0.000  -0.000   0.000
    1  9 3Pdxy      0.04405   0.00000      0.000  -0.000  -0.000
    1 10 3Pdyz      0.00000   0.00000      0.000   0.000   0.000
    1 11 3Pdz2      0.00407   0.00000     -0.000  -0.000  -0.000
    1 12 3Pdxz      0.00018   0.00000      0.000  -0.000  -0.000
    1 13 3Pdx2-y2   0.06644   0.00000     -0.000  -0.000  -0.000
    1     Total     4.00015   0.00000      0.000  -0.000   0.000

    2  1 2s         0.80674   0.00000     -0.000  -0.000  -0.000
    2  2 2s         0.19269   0.00000      0.000   0.000   0.000
    2  3 2py        0.88300   0.00000      0.000  -0.000  -0.000
    2  4 2pz        0.79269   0.00000     -0.000   0.000   0.000
    2  5 2px        0.63351   0.00000     -0.000  -0.000  -0.000
    2  6 2py        0.07300   0.00000     -0.000   0.000   0.000
    2  7 2pz        0.20715   0.00000     -0.000  -0.000  -0.000
    2  8 2px        0.29640   0.00000      0.000   0.000   0.000
    2  9 3Pdxy      0.04407   0.00000     -0.000  -0.000  -0.000
    2 10 3Pdyz      0.00000   0.00000     -0.000  -0.000  -0.000
    2 11 3Pdz2      0.00407   0.00000      0.000  -0.000   0.000
    2 12 3Pdxz      0.00018   0.00000      0.000  -0.000  -0.000
    2 13 3Pdx2-y2   0.06635   0.00000      0.000   0.000   0.000
    2     Total     3.99985   0.00000     -0.000   0.000  -0.000

----------------------------------------------------------------
Total               8.00000   0.00000     -0.000  -0.000  -0.000


Hirshfeld Atomic Populations:
Atom #     dQatom  Atom pop         S        Sx        Sy        Sz  Species
     1    0.00001   3.99999   0.00000   0.00000  -0.00000   0.00000  C
     2   -0.00000   4.00000   0.00000  -0.00000  -0.00000   0.00000  C
-------------------------------------------------------------------
 Total                        0.00000   0.00000  -0.00000   0.00000

Voronoi Atomic Populations:
Atom #     dQatom  Atom pop         S        Sx        Sy        Sz  Species
     1   -0.01382   4.01382   0.00000   0.00000   0.00000   0.00000  C
     2    0.01383   3.98617   0.00000  -0.00000  -0.00000   0.00000  C
-------------------------------------------------------------------
 Total                        0.00000   0.00000  -0.00000   0.00000
 

        iscf     Eharris(eV)        E_KS(eV)     FreeEng(eV)     dDmax    Ef(eV) dHmax(eV)
   scf:    5     -318.301383     -318.301381     -318.301381  0.000128 -2.029316  0.000674
     spin moment: {S} , |S| = {    0.00000   -0.00000    0.00000 }     0.00000

Using DM_out for analysis:

mulliken: Atomic and Orbital Populations:

Species: C                   

Atom      Orb        Charge      Spin       Svec
----------------------------------------------------------------
    1  1 2s         0.80717   0.00000     -0.000   0.000  -0.000
    1  2 2s         0.19247   0.00000      0.000  -0.000   0.000
    1  3 2py        0.88468   0.00000      0.000   0.000   0.000
    1  4 2pz        0.79265   0.00000     -0.000   0.000  -0.000
    1  5 2px        0.63064   0.00000      0.000   0.000   0.000
    1  6 2py        0.07122   0.00000     -0.000  -0.000  -0.000
    1  7 2pz        0.20715   0.00000      0.000  -0.000   0.000
    1  8 2px        0.29939   0.00000     -0.000  -0.000  -0.000
    1  9 3Pdxy      0.04403   0.00000     -0.000   0.000  -0.000
    1 10 3Pdyz      0.00000   0.00000      0.000  -0.000  -0.000
    1 11 3Pdz2      0.00407   0.00000      0.000  -0.000  -0.000
    1 12 3Pdxz      0.00018   0.00000     -0.000   0.000  -0.000
    1 13 3Pdx2-y2   0.06650   0.00000     -0.000  -0.000  -0.000
    1     Total     4.00015   0.00000      0.000   0.000  -0.000

    2  1 2s         0.80678   0.00000      0.000  -0.000   0.000
    2  2 2s         0.19266   0.00000      0.000   0.000  -0.000
    2  3 2py        0.88311   0.00000     -0.000  -0.000  -0.000
    2  4 2pz        0.79275   0.00000     -0.000  -0.000   0.000
    2  5 2px        0.63362   0.00000     -0.000  -0.000  -0.000
    2  6 2py        0.07291   0.00000      0.000   0.000   0.000
    2  7 2pz        0.20709   0.00000      0.000   0.000  -0.000
    2  8 2px        0.29623   0.00000      0.000   0.000   0.000
    2  9 3Pdxy      0.04405   0.00000      0.000  -0.000   0.000
    2 10 3Pdyz      0.00000   0.00000     -0.000   0.000  -0.000
    2 11 3Pdz2      0.00407   0.00000     -0.000  -0.000   0.000
    2 12 3Pdxz      0.00018   0.00000      0.000  -0.000  -0.000
    2 13 3Pdx2-y2   0.06641   0.00000      0.000   0.000  -0.000
    2     Total     3.99985   0.00000     -0.000  -0.000   0.000

----------------------------------------------------------------
Total               8.00000   0.00000      0.000  -0.000   0.000


Hirshfeld Atomic Populations:
Atom #     dQatom  Atom pop         S        Sx        Sy        Sz  Species
     1    0.00001   3.99999   0.00000  -0.00000  -0.00000  -0.00000  C
     2    0.00000   4.00000   0.00000   0.00000   0.00000  -0.00000  C
-------------------------------------------------------------------
 Total                        0.00000  -0.00000  -0.00000  -0.00000

Voronoi Atomic Populations:
Atom #     dQatom  Atom pop         S        Sx        Sy        Sz  Species
     1   -0.01383   4.01383   0.00000  -0.00000  -0.00000   0.00000  C
     2    0.01383   3.98617   0.00000   0.00000   0.00000  -0.00000  C
-------------------------------------------------------------------
 Total                        0.00000  -0.00000  -0.00000  -0.00000
 

        iscf     Eharris(eV)        E_KS(eV)     FreeEng(eV)     dDmax    Ef(eV) dHmax(eV)
   scf:    6     -318.301381     -318.301381     -318.301381  0.000005 -2.029338  0.000465
     spin moment: {S} , |S| = {   -0.00000   -0.00000    0.00000 }     0.00000

Using DM_out for analysis:

mulliken: Atomic and Orbital Populations:

Species: C                   

Atom      Orb        Charge      Spin       Svec
----------------------------------------------------------------
    1  1 2s         0.80717   0.00000      0.000   0.000  -0.000
    1  2 2s         0.19247   0.00000     -0.000  -0.000   0.000
    1  3 2py        0.88468   0.00000     -0.000   0.000   0.000
    1  4 2pz        0.79265   0.00000     -0.000  -0.000  -0.000
    1  5 2px        0.63064   0.00000     -0.000  -0.000  -0.000
    1  6 2py        0.07122   0.00000      0.000  -0.000  -0.000
    1  7 2pz        0.20715   0.00000      0.000   0.000   0.000
    1  8 2px        0.29938   0.00000     -0.000   0.000   0.000
    1  9 3Pdxy      0.04403   0.00000     -0.000  -0.000  -0.000
    1 10 3Pdyz      0.00000   0.00000      0.000   0.000  -0.000
    1 11 3Pdz2      0.00407   0.00000      0.000   0.000   0.000
    1 12 3Pdxz      0.00018   0.00000     -0.000  -0.000  -0.000
    1 13 3Pdx2-y2   0.06650   0.00000      0.000   0.000   0.000
    1     Total     4.00015   0.00000     -0.000  -0.000  -0.000

    2  1 2s         0.80678   0.00000     -0.000  -0.000   0.000
    2  2 2s         0.19266   0.00000     -0.000   0.000  -0.000
    2  3 2py        0.88311   0.00000     -0.000  -0.000  -0.000
    2  4 2pz        0.79274   0.00000     -0.000   0.000   0.000
    2  5 2px        0.63362   0.00000      0.000   0.000   0.000
    2  6 2py        0.07290   0.00000      0.000   0.000   0.000
    2  7 2pz        0.20710   0.00000     -0.000  -0.000  -0.000
    2  8 2px        0.29623   0.00000      0.000  -0.000  -0.000
    2  9 3Pdxy      0.04405   0.00000     -0.000  -0.000   0.000
    2 10 3Pdyz      0.00000   0.00000      0.000   0.000  -0.000
    2 11 3Pdz2      0.00407   0.00000      0.000  -0.000  -0.000
    2 12 3Pdxz      0.00018   0.00000      0.000   0.000  -0.000
    2 13 3Pdx2-y2   0.06641   0.00000     -0.000  -0.000  -0.000
    2     Total     3.99985   0.00000      0.000   0.000   0.000

----------------------------------------------------------------
Total               8.00000   0.00000     -0.000  -0.000   0.000


SCF Convergence by DM+H criterion
max |DM_out - DM_in|         :     0.0000053661
max |H_out - H_in|      (eV) :     0.0004653388
SCF cycle converged after 6 iterations

Using DM_out to compute the final energy and forces

Hirshfeld Atomic Populations:
Atom #     dQatom  Atom pop         S        Sx        Sy        Sz  Species
     1    0.00001   3.99999   0.00000  -0.00000  -0.00000  -0.00000  C
     2    0.00000   4.00000   0.00000   0.00000   0.00000  -0.00000  C
-------------------------------------------------------------------
 Total                        0.00000  -0.00000  -0.00000  -0.00000

Voronoi Atomic Populations:
Atom #     dQatom  Atom pop         S        Sx        Sy        Sz  Species
     1   -0.01383   4.01383   0.00000  -0.00000  -0.00000   0.00000  C
     2    0.01383   3.98617   0.00000   0.00000   0.00000  -0.00000  C
-------------------------------------------------------------------
 Total                        0.00000  -0.00000  -0.00000  -0.00000
 

siesta: E_KS(eV) =             -318.3014
     spin moment: {S} , |S| = {   -0.00000   -0.00000    0.00000 }     0.00000

siesta: Atomic forces (eV/Ang):
----------------------------------------
   Tot    0.019703    0.000000    0.000000
----------------------------------------
   Max   12.128251
   Res    6.996564    sqrt( Sum f_i^2 / 3N )
----------------------------------------
   Max   12.128251    constrained

Stress tensor Voigt[x,y,z,yz,xz,xy] (kbar):      -13.36     -210.79        0.04        0.00       -0.00        0.00
(Free)E + p*V (eV/cell)     -314.8328
Target enthalpy (eV/cell)     -318.3014

mulliken: Atomic and Orbital Populations:

Species: C                   

Atom      Orb        Charge      Spin       Svec
----------------------------------------------------------------
    1  1 2s         0.80717   0.00000      0.000   0.000  -0.000
    1  2 2s         0.19247   0.00000     -0.000  -0.000   0.000
    1  3 2py        0.88468   0.00000     -0.000   0.000   0.000
    1  4 2pz        0.79265   0.00000     -0.000  -0.000  -0.000
    1  5 2px        0.63064   0.00000     -0.000  -0.000  -0.000
    1  6 2py        0.07122   0.00000      0.000  -0.000  -0.000
    1  7 2pz        0.20715   0.00000      0.000   0.000   0.000
    1  8 2px        0.29938   0.00000     -0.000   0.000   0.000
    1  9 3Pdxy      0.04403   0.00000     -0.000  -0.000  -0.000
    1 10 3Pdyz      0.00000   0.00000      0.000   0.000  -0.000
    1 11 3Pdz2      0.00407   0.00000      0.000   0.000   0.000
    1 12 3Pdxz      0.00018   0.00000     -0.000  -0.000  -0.000
    1 13 3Pdx2-y2   0.06650   0.00000      0.000   0.000   0.000
    1     Total     4.00015   0.00000     -0.000  -0.000  -0.000

    2  1 2s         0.80678   0.00000     -0.000  -0.000   0.000
    2  2 2s         0.19266   0.00000     -0.000   0.000  -0.000
    2  3 2py        0.88311   0.00000     -0.000  -0.000  -0.000
    2  4 2pz        0.79274   0.00000     -0.000   0.000   0.000
    2  5 2px        0.63362   0.00000      0.000   0.000   0.000
    2  6 2py        0.07290   0.00000      0.000   0.000   0.000
    2  7 2pz        0.20710   0.00000     -0.000  -0.000  -0.000
    2  8 2px        0.29623   0.00000      0.000  -0.000  -0.000
    2  9 3Pdxy      0.04405   0.00000     -0.000  -0.000   0.000
    2 10 3Pdyz      0.00000   0.00000      0.000   0.000  -0.000
    2 11 3Pdz2      0.00407   0.00000      0.000  -0.000  -0.000
    2 12 3Pdxz      0.00018   0.00000      0.000   0.000  -0.000
    2 13 3Pdx2-y2   0.06641   0.00000     -0.000  -0.000  -0.000
    2     Total     3.99985   0.00000      0.000   0.000   0.000

----------------------------------------------------------------
Total               8.00000   0.00000     -0.000  -0.000   0.000


                     ====================================
                        Begin CG opt. move =      2
                     ====================================

outcell: Unit cell vectors (Ang):
        2.130000    1.229756    0.000000
        2.130000   -1.229756    0.000000
        0.000000    0.000000   14.200000

outcell: Cell vector modules (Ang)   :    2.459512    2.459512   14.200000
outcell: Cell angles (23,13,12) (deg):     90.0000     90.0000     60.0000
outcell: Cell volume (Ang**3)        :     74.3904
Gamma-point calculation with interaction between periodic images
Some features might not work optimally:
e.g. DM initialization from atomic data
<dSpData1D:S at geom step 2
  <sparsity:sparsity for geom step 2
    nrows_g=26 nrows=26 sparsity=1.0000 nnzs=676, refcount: 8>
  <dData1D:(new from dSpData1D) n=676, refcount: 1>
refcount: 1>
new_DM -- step:     3
Re-using DM from previous geometries...
Number of DMs in history: 1
 DM extrapolation coefficients: 
1   1.00000
New DM after history re-use:
<dSpData2D:SpM extrapolated using coords
  <sparsity:sparsity for geom step 2
    nrows_g=26 nrows=26 sparsity=1.0000 nnzs=676, refcount: 10>
  <dData2D:(temp array for extrapolation) n=676 m=8, refcount: 1>
refcount: 1>
     spin moment: {S} , |S| = {    0.00000   -0.00000    0.00000 }     0.00000
Note: For starting DM, Qtot, Tr[D*S] =          8.00000000          8.03190318

InitMesh: MESH = 24 x 24 x 150 = 86400
InitMesh: Mesh cutoff (required, used) =   300.000   308.395 Ry
New grid distribution [1]: sub = 2

Hirshfeld Atomic Populations:
Atom #     dQatom  Atom pop         S        Sx        Sy        Sz  Species
     1    0.00002   3.99998   0.00000  -0.00000  -0.00000  -0.00000  C
     2   -0.00002   4.00002   0.00000   0.00000   0.00000   0.00000  C
-------------------------------------------------------------------
 Total                        0.00000   0.00000  -0.00000  -0.00000

Voronoi Atomic Populations:
Atom #     dQatom  Atom pop         S        Sx        Sy        Sz  Species
     1    0.00250   3.99750   0.00000  -0.00000  -0.00000  -0.00000  C
     2   -0.00250   4.00250   0.00000   0.00000   0.00000  -0.00000  C
-------------------------------------------------------------------
 Total                        0.00000   0.00000  -0.00000  -0.00000
 

Hirshfeld Atomic Populations:
Atom #     dQatom  Atom pop         S        Sx        Sy        Sz  Species
     1   -0.00003   4.00003   0.00000   0.00000   0.00000  -0.00000  C
     2    0.00003   3.99997   0.00000  -0.00000  -0.00000   0.00000  C
-------------------------------------------------------------------
 Total                        0.00000   0.00000   0.00000   0.00000

Voronoi Atomic Populations:
Atom #     dQatom  Atom pop         S        Sx        Sy        Sz  Species
     1   -0.00529   4.00529   0.00000   0.00000   0.00000  -0.00000  C
     2    0.00529   3.99471   0.00000  -0.00000  -0.00000   0.00000  C
-------------------------------------------------------------------
 Total                        0.00000   0.00000   0.00000   0.00000
 

        iscf     Eharris(eV)        E_KS(eV)     FreeEng(eV)     dDmax    Ef(eV) dHmax(eV)
   scf:    1     -319.213301     -318.980172     -318.980172  0.116127 -2.047422  0.316007
     spin moment: {S} , |S| = {    0.00000    0.00000    0.00000 }     0.00000

Using DM_out for analysis:

mulliken: Atomic and Orbital Populations:

Species: C                   

Atom      Orb        Charge      Spin       Svec
----------------------------------------------------------------
    1  1 2s         0.81030   0.00000     -0.000  -0.000   0.000
    1  2 2s         0.18480   0.00000      0.000   0.000  -0.000
    1  3 2py        0.75409   0.00000      0.000   0.000  -0.000
    1  4 2pz        0.80084   0.00000      0.000  -0.000   0.000
    1  5 2px        0.74646   0.00000     -0.000  -0.000  -0.000
    1  6 2py        0.18824   0.00000     -0.000  -0.000  -0.000
    1  7 2pz        0.19915   0.00000     -0.000   0.000   0.000
    1  8 2px        0.20105   0.00000      0.000   0.000   0.000
    1  9 3Pdxy      0.05777   0.00000     -0.000   0.000   0.000
    1 10 3Pdyz      0.00000   0.00000      0.000  -0.000   0.000
    1 11 3Pdz2      0.00503   0.00000     -0.000   0.000  -0.000
    1 12 3Pdxz      0.00002   0.00000     -0.000  -0.000   0.000
    1 13 3Pdx2-y2   0.05231   0.00000     -0.000  -0.000  -0.000
    1     Total     4.00006   0.00000      0.000  -0.000   0.000

    2  1 2s         0.81033   0.00000     -0.000  -0.000  -0.000
    2  2 2s         0.18477   0.00000      0.000  -0.000   0.000
    2  3 2py        0.75558   0.00000     -0.000  -0.000   0.000
    2  4 2pz        0.80083   0.00000     -0.000   0.000  -0.000
    2  5 2px        0.74499   0.00000     -0.000   0.000  -0.000
    2  6 2py        0.18659   0.00000     -0.000   0.000  -0.000
    2  7 2pz        0.19914   0.00000      0.000  -0.000   0.000
    2  8 2px        0.20258   0.00000      0.000  -0.000   0.000
    2  9 3Pdxy      0.05773   0.00000     -0.000   0.000  -0.000
    2 10 3Pdyz      0.00000   0.00000      0.000   0.000   0.000
    2 11 3Pdz2      0.00503   0.00000      0.000   0.000   0.000
    2 12 3Pdxz      0.00002   0.00000     -0.000   0.000   0.000
    2 13 3Pdx2-y2   0.05235   0.00000     -0.000   0.000  -0.000
    2     Total     3.99994   0.00000     -0.000   0.000   0.000

----------------------------------------------------------------
Total               8.00000   0.00000      0.000   0.000   0.000


Hirshfeld Atomic Populations:
Atom #     dQatom  Atom pop         S        Sx        Sy        Sz  Species
     1    0.00006   3.99994   0.00000   0.00000  -0.00000   0.00000  C
     2   -0.00006   4.00006   0.00000  -0.00000   0.00000   0.00000  C
-------------------------------------------------------------------
 Total                        0.00000   0.00000   0.00000   0.00000

Voronoi Atomic Populations:
Atom #     dQatom  Atom pop         S        Sx        Sy        Sz  Species
     1   -0.00393   4.00393   0.00000   0.00000  -0.00000   0.00000  C
     2    0.00393   3.99607   0.00000  -0.00000   0.00000   0.00000  C
-------------------------------------------------------------------
 Total                        0.00000   0.00000   0.00000   0.00000
 

        iscf     Eharris(eV)        E_KS(eV)     FreeEng(eV)     dDmax    Ef(eV) dHmax(eV)
   scf:    2     -318.990307     -318.986431     -318.986431  0.009737 -2.133861  0.089413
     spin moment: {S} , |S| = {    0.00000    0.00000    0.00000 }     0.00000

Using DM_out for analysis:

mulliken: Atomic and Orbital Populations:

Species: C                   

Atom      Orb        Charge      Spin       Svec
----------------------------------------------------------------
    1  1 2s         0.80817   0.00000     -0.000   0.000   0.000
    1  2 2s         0.18644   0.00000      0.000  -0.000  -0.000
    1  3 2py        0.75644   0.00000      0.000  -0.000   0.000
    1  4 2pz        0.79731   0.00000      0.000   0.000  -0.000
    1  5 2px        0.74697   0.00000      0.000  -0.000  -0.000
    1  6 2py        0.19001   0.00000     -0.000   0.000  -0.000
    1  7 2pz        0.20265   0.00000     -0.000  -0.000  -0.000
    1  8 2px        0.19661   0.00000     -0.000   0.000   0.000
    1  9 3Pdxy      0.05359   0.00000      0.000   0.000   0.000
    1 10 3Pdyz      0.00000   0.00000     -0.000  -0.000   0.000
    1 11 3Pdz2      0.00538   0.00000      0.000  -0.000   0.000
    1 12 3Pdxz     -0.00000   0.00000      0.000  -0.000  -0.000
    1 13 3Pdx2-y2   0.05632   0.00000     -0.000   0.000  -0.000
    1     Total     3.99989   0.00000     -0.000   0.000   0.000

    2  1 2s         0.80815   0.00000      0.000  -0.000  -0.000
    2  2 2s         0.18647   0.00000     -0.000   0.000   0.000
    2  3 2py        0.75803   0.00000     -0.000   0.000  -0.000
    2  4 2pz        0.79739   0.00000     -0.000  -0.000   0.000
    2  5 2px        0.74562   0.00000     -0.000   0.000  -0.000
    2  6 2py        0.18838   0.00000      0.000  -0.000   0.000
    2  7 2pz        0.20264   0.00000      0.000   0.000  -0.000
    2  8 2px        0.19814   0.00000      0.000  -0.000   0.000
    2  9 3Pdxy      0.05355   0.00000      0.000  -0.000   0.000
    2 10 3Pdyz      0.00000   0.00000     -0.000  -0.000   0.000
    2 11 3Pdz2      0.00539   0.00000     -0.000   0.000  -0.000
    2 12 3Pdxz     -0.00000   0.00000      0.000  -0.000  -0.000
    2 13 3Pdx2-y2   0.05635   0.00000      0.000  -0.000  -0.000
    2     Total     4.00011   0.00000      0.000  -0.000  -0.000

----------------------------------------------------------------
Total               8.00000   0.00000      0.000   0.000   0.000


Hirshfeld Atomic Populations:
Atom #     dQatom  Atom pop         S        Sx        Sy        Sz  Species
     1    0.00002   3.99998   0.00000   0.00000  -0.00000   0.00000  C
     2   -0.00001   4.00001   0.00000  -0.00000  -0.00000   0.00000  C
-------------------------------------------------------------------
 Total                        0.00000   0.00000  -0.00000   0.00000

Voronoi Atomic Populations:
Atom #     dQatom  Atom pop         S        Sx        Sy        Sz  Species
     1   -0.00427   4.00427   0.00000   0.00000  -0.00000   0.00000  C
     2    0.00427   3.99573   0.00000  -0.00000   0.00000   0.00000  C
-------------------------------------------------------------------
 Total                        0.00000   0.00000  -0.00000   0.00000
 

        iscf     Eharris(eV)        E_KS(eV)     FreeEng(eV)     dDmax    Ef(eV) dHmax(eV)
   scf:    3     -318.987337     -318.986942     -318.986942  0.002129 -2.111405  0.011322
     spin moment: {S} , |S| = {    0.00000   -0.00000    0.00000 }     0.00000

Using DM_out for analysis:

mulliken: Atomic and Orbital Populations:

Species: C                   

Atom      Orb        Charge      Spin       Svec
----------------------------------------------------------------
    1  1 2s         0.80861   0.00000     -0.000  -0.000   0.000
    1  2 2s         0.18609   0.00000      0.000   0.000  -0.000
    1  3 2py        0.75587   0.00000      0.000   0.000   0.000
    1  4 2pz        0.79819   0.00000     -0.000   0.000   0.000
    1  5 2px        0.74692   0.00000      0.000   0.000  -0.000
    1  6 2py        0.18966   0.00000     -0.000  -0.000  -0.000
    1  7 2pz        0.20179   0.00000      0.000  -0.000  -0.000
    1  8 2px        0.19757   0.00000     -0.000  -0.000   0.000
    1  9 3Pdxy      0.05454   0.00000     -0.000   0.000   0.000
    1 10 3Pdyz      0.00000   0.00000     -0.000  -0.000   0.000
    1 11 3Pdz2      0.00530   0.00000      0.000   0.000   0.000
    1 12 3Pdxz      0.00000   0.00000     -0.000  -0.000  -0.000
    1 13 3Pdx2-y2   0.05542   0.00000     -0.000  -0.000   0.000
    1     Total     3.99997   0.00000     -0.000  -0.000   0.000

    2  1 2s         0.80862   0.00000      0.000   0.000   0.000
    2  2 2s         0.18609   0.00000     -0.000  -0.000   0.000
    2  3 2py        0.75741   0.00000     -0.000   0.000   0.000
    2  4 2pz        0.79823   0.00000      0.000  -0.000  -0.000
    2  5 2px        0.74552   0.00000      0.000  -0.000   0.000
    2  6 2py        0.18802   0.00000      0.000  -0.000  -0.000
    2  7 2pz        0.20178   0.00000     -0.000   0.000   0.000
    2  8 2px        0.19910   0.00000     -0.000   0.000  -0.000
    2  9 3Pdxy      0.05450   0.00000      0.000   0.000  -0.000
    2 10 3Pdyz      0.00000   0.00000      0.000   0.000   0.000
    2 11 3Pdz2      0.00530   0.00000     -0.000   0.000  -0.000
    2 12 3Pdxz      0.00000   0.00000     -0.000   0.000  -0.000
    2 13 3Pdx2-y2   0.05545   0.00000      0.000   0.000   0.000
    2     Total     4.00003   0.00000      0.000  -0.000  -0.000

----------------------------------------------------------------
Total               8.00000   0.00000      0.000  -0.000   0.000


Hirshfeld Atomic Populations:
Atom #     dQatom  Atom pop         S        Sx        Sy        Sz  Species
     1    0.00001   3.99999   0.00000   0.00000  -0.00000   0.00000  C
     2   -0.00000   4.00000   0.00000   0.00000   0.00000   0.00000  C
-------------------------------------------------------------------
 Total                        0.00000   0.00000   0.00000   0.00000

Voronoi Atomic Populations:
Atom #     dQatom  Atom pop         S        Sx        Sy        Sz  Species
     1   -0.00428   4.00428   0.00000   0.00000  -0.00000  -0.00000  C
     2    0.00429   3.99571   0.00000   0.00000   0.00000   0.00000  C
-------------------------------------------------------------------
 Total                        0.00000   0.00000   0.00000   0.00000
 

        iscf     Eharris(eV)        E_KS(eV)     FreeEng(eV)     dDmax    Ef(eV) dHmax(eV)
   scf:    4     -318.986944     -318.986943     -318.986943  0.000052 -2.109832  0.007946
     spin moment: {S} , |S| = {    0.00000    0.00000    0.00000 }     0.00000

Using DM_out for analysis:

mulliken: Atomic and Orbital Populations:

Species: C                   

Atom      Orb        Charge      Spin       Svec
----------------------------------------------------------------
    1  1 2s         0.80862   0.00000      0.000  -0.000   0.000
    1  2 2s         0.18608   0.00000     -0.000   0.000  -0.000
    1  3 2py        0.75583   0.00000     -0.000   0.000  -0.000
    1  4 2pz        0.79825   0.00000      0.000  -0.000   0.000
    1  5 2px        0.74696   0.00000      0.000   0.000  -0.000
    1  6 2py        0.18970   0.00000      0.000  -0.000   0.000
    1  7 2pz        0.20175   0.00000     -0.000   0.000  -0.000
    1  8 2px        0.19754   0.00000      0.000  -0.000   0.000
    1  9 3Pdxy      0.05454   0.00000      0.000   0.000   0.000
    1 10 3Pdyz      0.00000   0.00000      0.000   0.000  -0.000
    1 11 3Pdz2      0.00529   0.00000     -0.000  -0.000  -0.000
    1 12 3Pdxz      0.00000   0.00000     -0.000   0.000   0.000
    1 13 3Pdx2-y2   0.05542   0.00000     -0.000  -0.000   0.000
    1     Total     3.99999   0.00000      0.000  -0.000   0.000

    2  1 2s         0.80864   0.00000     -0.000   0.000  -0.000
    2  2 2s         0.18608   0.00000      0.000  -0.000   0.000
    2  3 2py        0.75736   0.00000      0.000  -0.000   0.000
    2  4 2pz        0.79827   0.00000     -0.000   0.000  -0.000
    2  5 2px        0.74555   0.00000     -0.000  -0.000  -0.000
    2  6 2py        0.18806   0.00000     -0.000   0.000  -0.000
    2  7 2pz        0.20174   0.00000      0.000  -0.000   0.000
    2  8 2px        0.19907   0.00000      0.000   0.000   0.000
    2  9 3Pdxy      0.05451   0.00000     -0.000   0.000  -0.000
    2 10 3Pdyz      0.00000   0.00000      0.000   0.000   0.000
    2 11 3Pdz2      0.00530   0.00000      0.000   0.000   0.000
    2 12 3Pdxz      0.00000   0.00000     -0.000  -0.000   0.000
    2 13 3Pdx2-y2   0.05545   0.00000     -0.000   0.000  -0.000
    2     Total     4.00001   0.00000     -0.000   0.000   0.000

----------------------------------------------------------------
Total               8.00000   0.00000      0.000   0.000   0.000


Hirshfeld Atomic Populations:
Atom #     dQatom  Atom pop         S        Sx        Sy        Sz  Species
     1   -0.00000   4.00000   0.00000  -0.00000  -0.00000   0.00000  C
     2    0.00001   3.99999   0.00000   0.00000   0.00000  -0.00000  C
-------------------------------------------------------------------
 Total                        0.00000  -0.00000   0.00000  -0.00000

Voronoi Atomic Populations:
Atom #     dQatom  Atom pop         S        Sx        Sy        Sz  Species
     1   -0.00429   4.00429   0.00000  -0.00000  -0.00000   0.00000  C
     2    0.00429   3.99571   0.00000   0.00000   0.00000  -0.00000  C
-------------------------------------------------------------------
 Total                        0.00000  -0.00000   0.00000  -0.00000
 

        iscf     Eharris(eV)        E_KS(eV)     FreeEng(eV)     dDmax    Ef(eV) dHmax(eV)
   scf:    5     -318.986945     -318.986944     -318.986944  0.000108 -2.106609  0.001371
     spin moment: {S} , |S| = {   -0.00000    0.00000   -0.00000 }     0.00000

Using DM_out for analysis:

mulliken: Atomic and Orbital Populations:

Species: C                   

Atom      Orb        Charge      Spin       Svec
----------------------------------------------------------------
    1  1 2s         0.80865   0.00000     -0.000  -0.000   0.000
    1  2 2s         0.18606   0.00000      0.000   0.000  -0.000
    1  3 2py        0.75574   0.00000      0.000   0.000   0.000
    1  4 2pz        0.79835   0.00000      0.000  -0.000   0.000
    1  5 2px        0.74704   0.00000     -0.000   0.000  -0.000
    1  6 2py        0.18978   0.00000     -0.000  -0.000  -0.000
    1  7 2pz        0.20165   0.00000     -0.000  -0.000  -0.000
    1  8 2px        0.19747   0.00000      0.000  -0.000   0.000
    1  9 3Pdxy      0.05456   0.00000      0.000   0.000  -0.000
    1 10 3Pdyz      0.00000   0.00000      0.000   0.000  -0.000
    1 11 3Pdz2      0.00528   0.00000      0.000   0.000  -0.000
    1 12 3Pdxz      0.00000   0.00000     -0.000  -0.000  -0.000
    1 13 3Pdx2-y2   0.05542   0.00000     -0.000  -0.000  -0.000
    1     Total     4.00000   0.00000     -0.000  -0.000   0.000

    2  1 2s         0.80867   0.00000      0.000   0.000  -0.000
    2  2 2s         0.18606   0.00000     -0.000   0.000   0.000
    2  3 2py        0.75727   0.00000      0.000  -0.000  -0.000
    2  4 2pz        0.79836   0.00000      0.000   0.000  -0.000
    2  5 2px        0.74562   0.00000     -0.000   0.000  -0.000
    2  6 2py        0.18813   0.00000      0.000   0.000   0.000
    2  7 2pz        0.20164   0.00000      0.000  -0.000   0.000
    2  8 2px        0.19899   0.00000     -0.000  -0.000   0.000
    2  9 3Pdxy      0.05452   0.00000     -0.000   0.000   0.000
    2 10 3Pdyz      0.00000   0.00000      0.000   0.000  -0.000
    2 11 3Pdz2      0.00529   0.00000     -0.000   0.000  -0.000
    2 12 3Pdxz      0.00000   0.00000      0.000   0.000  -0.000
    2 13 3Pdx2-y2   0.05545   0.00000      0.000   0.000  -0.000
    2     Total     4.00000   0.00000      0.000   0.000  -0.000

----------------------------------------------------------------
Total               8.00000   0.00000     -0.000   0.000  -0.000


Hirshfeld Atomic Populations:
Atom #     dQatom  Atom pop         S        Sx        Sy        Sz  Species
     1    0.00000   4.00000   0.00000  -0.00000  -0.00000  -0.00000  C
     2    0.00000   4.00000   0.00000   0.00000   0.00000   0.00000  C
-------------------------------------------------------------------
 Total                        0.00000   0.00000  -0.00000  -0.00000

Voronoi Atomic Populations:
Atom #     dQatom  Atom pop         S        Sx        Sy        Sz  Species
     1   -0.00428   4.00428   0.00000  -0.00000  -0.00000  -0.00000  C
     2    0.00429   3.99571   0.00000   0.00000   0.00000   0.00000  C
-------------------------------------------------------------------
 Total                        0.00000   0.00000  -0.00000  -0.00000
 

        iscf     Eharris(eV)        E_KS(eV)     FreeEng(eV)     dDmax    Ef(eV) dHmax(eV)
   scf:    6     -318.986944     -318.986944     -318.986944  0.000013 -2.106599  0.000968
     spin moment: {S} , |S| = {    0.00000   -0.00000   -0.00000 }     0.00000

Using DM_out for analysis:

mulliken: Atomic and Orbital Populations:

Species: C                   

Atom      Orb        Charge      Spin       Svec
----------------------------------------------------------------
    1  1 2s         0.80865   0.00000      0.000   0.000   0.000
    1  2 2s         0.18607   0.00000     -0.000  -0.000  -0.000
    1  3 2py        0.75573   0.00000      0.000  -0.000  -0.000
    1  4 2pz        0.79834   0.00000      0.000  -0.000  -0.000
    1  5 2px        0.74705   0.00000     -0.000   0.000  -0.000
    1  6 2py        0.18979   0.00000     -0.000   0.000   0.000
    1  7 2pz        0.20165   0.00000     -0.000   0.000   0.000
    1  8 2px        0.19746   0.00000      0.000  -0.000   0.000
    1  9 3Pdxy      0.05456   0.00000     -0.000  -0.000   0.000
    1 10 3Pdyz      0.00000   0.00000      0.000   0.000   0.000
    1 11 3Pdz2      0.00528   0.00000     -0.000  -0.000   0.000
    1 12 3Pdxz      0.00000   0.00000      0.000   0.000  -0.000
    1 13 3Pdx2-y2   0.05542   0.00000      0.000  -0.000   0.000
    1     Total     4.00000   0.00000      0.000  -0.000   0.000

    2  1 2s         0.80867   0.00000     -0.000  -0.000  -0.000
    2  2 2s         0.18606   0.00000      0.000   0.000   0.000
    2  3 2py        0.75726   0.00000     -0.000  -0.000   0.000
    2  4 2pz        0.79836   0.00000      0.000   0.000   0.000
    2  5 2px        0.74563   0.00000      0.000   0.000  -0.000
    2  6 2py        0.18814   0.00000      0.000   0.000  -0.000
    2  7 2pz        0.20164   0.00000      0.000  -0.000  -0.000
    2  8 2px        0.19898   0.00000     -0.000  -0.000   0.000
    2  9 3Pdxy      0.05452   0.00000      0.000  -0.000   0.000
    2 10 3Pdyz      0.00000   0.00000     -0.000  -0.000   0.000
    2 11 3Pdz2      0.00529   0.00000      0.000  -0.000  -0.000
    2 12 3Pdxz      0.00000   0.00000      0.000  -0.000  -0.000
    2 13 3Pdx2-y2   0.05545   0.00000     -0.000   0.000  -0.000
    2     Total     4.00000   0.00000     -0.000   0.000  -0.000

----------------------------------------------------------------
Total               8.00000   0.00000      0.000  -0.000  -0.000


SCF Convergence by DM+H criterion
max |DM_out - DM_in|         :     0.0000130699
max |H_out - H_in|      (eV) :     0.0009679290
SCF cycle converged after 6 iterations

Using DM_out to compute the final energy and forces

Hirshfeld Atomic Populations:
Atom #     dQatom  Atom pop         S        Sx        Sy        Sz  Species
     1    0.00000   4.00000   0.00000  -0.00000  -0.00000  -0.00000  C
     2    0.00000   4.00000   0.00000   0.00000   0.00000   0.00000  C
-------------------------------------------------------------------
 Total                        0.00000   0.00000  -0.00000  -0.00000

Voronoi Atomic Populations:
Atom #     dQatom  Atom pop         S        Sx        Sy        Sz  Species
     1   -0.00428   4.00428   0.00000  -0.00000  -0.00000  -0.00000  C
     2    0.00429   3.99571   0.00000   0.00000   0.00000   0.00000  C
-------------------------------------------------------------------
 Total                        0.00000   0.00000  -0.00000  -0.00000
 

siesta: E_KS(eV) =             -318.9869
     spin moment: {S} , |S| = {    0.00000   -0.00000   -0.00000 }     0.00000

siesta: Atomic forces (eV/Ang):
----------------------------------------
   Tot    0.010504    0.000000   -0.000000
----------------------------------------
   Max    0.519392
   Res    0.296855    sqrt( Sum f_i^2 / 3N )
----------------------------------------
   Max    0.519392    constrained

Stress tensor Voigt[x,y,z,yz,xz,xy] (kbar):      -86.02      -92.59        0.03        0.00        0.00       -0.00
(Free)E + p*V (eV/cell)     -316.2232
Target enthalpy (eV/cell)     -318.9869

mulliken: Atomic and Orbital Populations:

Species: C                   

Atom      Orb        Charge      Spin       Svec
----------------------------------------------------------------
    1  1 2s         0.80865   0.00000      0.000   0.000   0.000
    1  2 2s         0.18607   0.00000     -0.000  -0.000  -0.000
    1  3 2py        0.75573   0.00000      0.000  -0.000  -0.000
    1  4 2pz        0.79834   0.00000      0.000  -0.000  -0.000
    1  5 2px        0.74705   0.00000     -0.000   0.000  -0.000
    1  6 2py        0.18979   0.00000     -0.000   0.000   0.000
    1  7 2pz        0.20165   0.00000     -0.000   0.000   0.000
    1  8 2px        0.19746   0.00000      0.000  -0.000   0.000
    1  9 3Pdxy      0.05456   0.00000     -0.000  -0.000   0.000
    1 10 3Pdyz      0.00000   0.00000      0.000   0.000   0.000
    1 11 3Pdz2      0.00528   0.00000     -0.000  -0.000   0.000
    1 12 3Pdxz      0.00000   0.00000      0.000   0.000  -0.000
    1 13 3Pdx2-y2   0.05542   0.00000      0.000  -0.000   0.000
    1     Total     4.00000   0.00000      0.000  -0.000   0.000

    2  1 2s         0.80867   0.00000     -0.000  -0.000  -0.000
    2  2 2s         0.18606   0.00000      0.000   0.000   0.000
    2  3 2py        0.75726   0.00000     -0.000  -0.000   0.000
    2  4 2pz        0.79836   0.00000      0.000   0.000   0.000
    2  5 2px        0.74563   0.00000      0.000   0.000  -0.000
    2  6 2py        0.18814   0.00000      0.000   0.000  -0.000
    2  7 2pz        0.20164   0.00000      0.000  -0.000  -0.000
    2  8 2px        0.19898   0.00000     -0.000  -0.000   0.000
    2  9 3Pdxy      0.05452   0.00000      0.000  -0.000   0.000
    2 10 3Pdyz      0.00000   0.00000     -0.000  -0.000   0.000
    2 11 3Pdz2      0.00529   0.00000      0.000  -0.000  -0.000
    2 12 3Pdxz      0.00000   0.00000      0.000  -0.000  -0.000
    2 13 3Pdx2-y2   0.05545   0.00000     -0.000   0.000  -0.000
    2     Total     4.00000   0.00000     -0.000   0.000  -0.000

----------------------------------------------------------------
Total               8.00000   0.00000      0.000  -0.000  -0.000


cgvc: Finished line minimization    1.  Mean atomic displacement =    0.0418

outcoor: Final (unrelaxed) atomic coordinates (Ang):        
   -0.02214429    0.00000000   -0.00000000   1       1  C
    1.40207404   -0.00000000    0.00000000   1       2  C

siesta: Program's energy decomposition (eV):
siesta: Ebs     =       -99.367788
siesta: Eions   =       564.310478
siesta: Ena     =       150.787390
siesta: Ekin    =       253.050436
siesta: Enl(+so)=       -26.231382
siesta: Eso(nil)=         0.000000
siesta: Edftu   =         0.000000
siesta: DEna    =       -17.210499
siesta: DUscf   =         2.158960
siesta: DUext   =         0.000000
siesta: Ex      =      -103.327808
siesta: Ec      =       -13.903562
siesta: Exc     =      -117.231371
siesta: EbV     =         0.000000
siesta: eta*DQ  =         0.000000
siesta: Emadel  =         0.000000
siesta: Emeta   =         0.000000
siesta: Emolmec =         0.000000
siesta: Ekinion =         0.000000
siesta: Eharris =      -318.986944
siesta: Etot    =      -318.986944
siesta: FreeEng =      -318.986944

siesta: Final energy (eV):
siesta:  Band Struct. =     -99.367788
siesta:       Kinetic =     253.050436
siesta:       Hartree =    1023.813544
siesta:         Edftu =       0.000000
siesta:      Eso(nil) =       0.000000
siesta:    Ext. field =       0.000000
siesta:         Exch. =    -103.327808
siesta:         Corr. =     -13.903562
siesta:     Bulk bias =       0.000000
siesta:   Exch.-corr. =    -117.231371
siesta:  Ion-electron =   -2270.512920
siesta:       Ion-ion =     791.893367
siesta:       Ekinion =       0.000000
siesta: D3 dispersion =       0.000000
siesta:         Total =    -318.986944
siesta:         Fermi =      -2.106599

siesta: Atomic forces (eV/Ang):
siesta:      1    0.519392   -0.000000   -0.000000
siesta:      2   -0.508889    0.000000    0.000000
siesta: ----------------------------------------
siesta:    Tot    0.010504    0.000000   -0.000000

siesta: Stress tensor (static) (eV/Ang**3):
siesta:    -0.053690    0.000000    0.000000
siesta:    -0.000000   -0.057787    0.000000
siesta:     0.000000    0.000000    0.000020

siesta: Cell volume =         74.390404 Ang**3

siesta: Pressure (static):
siesta:                Solid            Molecule  Units
siesta:           0.00040464          0.00044038  Ry/Bohr**3
siesta:           0.03715231          0.04043342  eV/Ang**3
siesta:          59.52456552         64.78147537  kBar
(Free)E+ p_basis*V_orbitals  =        -318.205248
(Free)Eharris+ p_basis*V_orbitals  =        -318.205248
     spin moment: {S} , |S| = {    0.00000   -0.00000   -0.00000 }     0.00000

siesta: Electric dipole (a.u.)  =    0.000000    0.000000   -0.000000
siesta: Electric dipole (Debye) =    0.000000    0.000000   -0.000000

cite: Please see "siesta.bib" for an exhaustive BiBTeX file.
cite: Please clearly indicate Siesta version in published work: NO_VERSION_LABEL_AVAILABLE
cite: This calculation has made use of the following articles
cite: which are encouraged to be cited in a published work.
        Primary SIESTA paper
          DOI: www.doi.org/10.1088/0953-8984/14/11/302
        Spin-orbit coupling (off-site approximation)
          DOI: www.doi.org/10.1088/0953-8984/24/8/086005


timer: Elapsed wall time (sec) =      25.421
timer: CPU execution times (sec):

Routine            Calls   Time/call    Tot.time        %
siesta                 1      28.027      28.027   100.00
Setup                  1       0.097       0.097     0.35
bands                  1       0.000       0.000     0.00
KSV_init               1       0.000       0.000     0.00
IterGeom               3       9.309      27.927    99.64
geom_init              3       1.130       3.389    12.09
state_init             3       0.034       0.103     0.37
hsparse                3       0.001       0.003     0.01
overlap                3       0.032       0.097     0.35
Setup_H0               3       0.374       1.123     4.01
naefs                  6       0.000       0.000     0.00
MolMec                 6       0.000       0.000     0.00
kinefsm                6       0.019       0.113     0.40
nlefsm                 6       0.085       0.510     1.82
DHSCF_Init             3       0.224       0.671     2.40
DHSCF1                 3       0.024       0.071     0.25
INITMESH               3       0.000       0.000     0.00
DHSCF2                 3       0.200       0.601     2.14
REMESH                 3       0.010       0.031     0.11
REORD                359       0.000       0.039     0.14
PHION                  3       0.160       0.480     1.71
COMM_BSC             501       0.000       0.045     0.16
POISON                26       0.008       0.216     0.77
fft                   52       0.004       0.189     0.68
setup_H               20       0.824      16.485    58.82
DHSCF                 23       1.110      25.534    91.11
DHSCF3                23       0.810      18.629    66.47
rhoofd                23       0.327       7.510    26.79
partial-charges       23       0.205       4.716    16.83
XC                    23       0.010       0.228     0.81
GXC-CellXC            23       0.009       0.198     0.71
gridxc@cellXC         23       0.009       0.198     0.71
vmat                  23       0.253       5.824    20.78
IterSCF               17       0.900      15.297    54.58
compute_dm            17       0.057       0.968     3.46
diagon                17       0.054       0.912     3.25
cdiag                 17       0.053       0.909     3.24
cdiag1                17       0.000       0.001     0.00
cdiag2                17       0.049       0.840     3.00
cdiag3                17       0.003       0.045     0.16
cdiag4                17       0.001       0.022     0.08
MIXER                 14       0.000       0.001     0.00
PostSCF                3       3.080       9.239    32.96
DHSCF4                 3       2.302       6.905    24.64
dfscf                  3       2.280       6.840    24.40
overfsm                3       0.004       0.011     0.04
writeHSX               3       0.000       0.000     0.00
state_analysis         3       0.000       0.001     0.00
siesta_move            3       0.000       0.001     0.00
Analysis               1       0.001       0.001     0.00
optical                1       0.000       0.000     0.00
  

>> End of run:  23-APR-2024  16:29:13
Job completed
