<pdos>
<nspin>1</nspin>
<norbitals>18</norbitals>
<fermi_energy units="eV"> -0.448376650E+01</fermi_energy>
<energy_values units="eV">
 -0.548376650E+01
 -0.547371625E+01
 -0.546366600E+01
 -0.545361575E+01
 -0.544356550E+01
 -0.543351525E+01
 -0.542346500E+01
 -0.541341475E+01
 -0.540336449E+01
 -0.539331424E+01
 -0.538326399E+01
 -0.537321374E+01
 -0.536316349E+01
 -0.535311324E+01
 -0.534306299E+01
 -0.533301274E+01
 -0.532296248E+01
 -0.531291223E+01
 -0.530286198E+01
 -0.529281173E+01
 -0.528276148E+01
 -0.527271123E+01
 -0.526266098E+01
 -0.525261073E+01
 -0.524256047E+01
 -0.523251022E+01
 -0.522245997E+01
 -0.521240972E+01
 -0.520235947E+01
 -0.519230922E+01
 -0.518225897E+01
 -0.517220872E+01
 -0.516215846E+01
 -0.515210821E+01
 -0.514205796E+01
 -0.513200771E+01
 -0.512195746E+01
 -0.511190721E+01
 -0.510185696E+01
 -0.509180671E+01
 -0.508175645E+01
 -0.507170620E+01
 -0.506165595E+01
 -0.505160570E+01
 -0.504155545E+01
 -0.503150520E+01
 -0.502145495E+01
 -0.501140470E+01
 -0.500135444E+01
 -0.499130419E+01
 -0.498125394E+01
 -0.497120369E+01
 -0.496115344E+01
 -0.495110319E+01
 -0.494105294E+01
 -0.493100269E+01
 -0.492095243E+01
 -0.491090218E+01
 -0.490085193E+01
 -0.489080168E+01
 -0.488075143E+01
 -0.487070118E+01
 -0.486065093E+01
 -0.485060068E+01
 -0.484055042E+01
 -0.483050017E+01
 -0.482044992E+01
 -0.481039967E+01
 -0.480034942E+01
 -0.479029917E+01
 -0.478024892E+01
 -0.477019867E+01
 -0.476014841E+01
 -0.475009816E+01
 -0.474004791E+01
 -0.472999766E+01
 -0.471994741E+01
 -0.470989716E+01
 -0.469984691E+01
 -0.468979666E+01
 -0.467974640E+01
 -0.466969615E+01
 -0.465964590E+01
 -0.464959565E+01
 -0.463954540E+01
 -0.462949515E+01
 -0.461944490E+01
 -0.460939465E+01
 -0.459934439E+01
 -0.458929414E+01
 -0.457924389E+01
 -0.456919364E+01
 -0.455914339E+01
 -0.454909314E+01
 -0.453904289E+01
 -0.452899264E+01
 -0.451894238E+01
 -0.450889213E+01
 -0.449884188E+01
 -0.448879163E+01
 -0.447874138E+01
 -0.446869113E+01
 -0.445864088E+01
 -0.444859063E+01
 -0.443854037E+01
 -0.442849012E+01
 -0.441843987E+01
 -0.440838962E+01
 -0.439833937E+01
 -0.438828912E+01
 -0.437823887E+01
 -0.436818862E+01
 -0.435813836E+01
 -0.434808811E+01
 -0.433803786E+01
 -0.432798761E+01
 -0.431793736E+01
 -0.430788711E+01
 -0.429783686E+01
 -0.428778661E+01
 -0.427773635E+01
 -0.426768610E+01
 -0.425763585E+01
 -0.424758560E+01
 -0.423753535E+01
 -0.422748510E+01
 -0.421743485E+01
 -0.420738460E+01
 -0.419733434E+01
 -0.418728409E+01
 -0.417723384E+01
 -0.416718359E+01
 -0.415713334E+01
 -0.414708309E+01
 -0.413703284E+01
 -0.412698259E+01
 -0.411693233E+01
 -0.410688208E+01
 -0.409683183E+01
 -0.408678158E+01
 -0.407673133E+01
 -0.406668108E+01
 -0.405663083E+01
 -0.404658057E+01
 -0.403653032E+01
 -0.402648007E+01
 -0.401642982E+01
 -0.400637957E+01
 -0.399632932E+01
 -0.398627907E+01
 -0.397622882E+01
 -0.396617856E+01
 -0.395612831E+01
 -0.394607806E+01
 -0.393602781E+01
 -0.392597756E+01
 -0.391592731E+01
 -0.390587706E+01
 -0.389582681E+01
 -0.388577655E+01
 -0.387572630E+01
 -0.386567605E+01
 -0.385562580E+01
 -0.384557555E+01
 -0.383552530E+01
 -0.382547505E+01
 -0.381542480E+01
 -0.380537454E+01
 -0.379532429E+01
 -0.378527404E+01
 -0.377522379E+01
 -0.376517354E+01
 -0.375512329E+01
 -0.374507304E+01
 -0.373502279E+01
 -0.372497253E+01
 -0.371492228E+01
 -0.370487203E+01
 -0.369482178E+01
 -0.368477153E+01
 -0.367472128E+01
 -0.366467103E+01
 -0.365462078E+01
 -0.364457052E+01
 -0.363452027E+01
 -0.362447002E+01
 -0.361441977E+01
 -0.360436952E+01
 -0.359431927E+01
 -0.358426902E+01
 -0.357421877E+01
 -0.356416851E+01
 -0.355411826E+01
 -0.354406801E+01
 -0.353401776E+01
 -0.352396751E+01
 -0.351391726E+01
 -0.350386701E+01
 -0.349381676E+01
 -0.348376650E+01
</energy_values>
<orbital 
 index="                        1" 
 atom_index="                        1" 
 species="Si" 
 Z="                       14" 
 position="   0.000000   0.000000   0.000000" 
 n="                        3" 
 l="                        0" 
 m="                        0" 
 z="                        1" 
 P="false" 
>
<data>
  0.915081178E-17
  0.132391210E-16
  0.190574737E-16
  0.272946894E-16
  0.388953454E-16
  0.551472370E-16
  0.777958682E-16
  0.109193291E-15
  0.152490232E-15
  0.211882333E-15
  0.292923434E-15
  0.402921215E-15
  0.551433063E-15
  0.750882734E-15
  0.101732117E-14
  0.137135754E-14
  0.183928894E-14
  0.245445951E-14
  0.325888048E-14
  0.430514361E-14
  0.565865871E-14
  0.740024348E-14
  0.962908822E-14
  0.124661105E-13
  0.160577032E-13
  0.205798653E-13
  0.262426858E-13
  0.332951274E-13
  0.420300330E-13
  0.527892425E-13
  0.659686776E-13
  0.820232125E-13
  0.101471112E-12
  0.124897779E-12
  0.152958515E-12
  0.186379976E-12
  0.225959961E-12
  0.272565185E-12
  0.327126646E-12
  0.390632263E-12
  0.464116433E-12
  0.548646271E-12
  0.645304311E-12
  0.755167603E-12
  0.879283215E-12
  0.101864032E-11
  0.117413922E-11
  0.134655772E-11
  0.153651570E-11
  0.174443857E-11
  0.197052072E-11
  0.221469018E-11
  0.247657568E-11
  0.275547755E-11
  0.305034385E-11
  0.335975315E-11
  0.368190508E-11
  0.401462012E-11
  0.435534913E-11
  0.470119365E-11
  0.504893705E-11
  0.539508660E-11
  0.573592591E-11
  0.606757698E-11
  0.638607046E-11
  0.668742255E-11
  0.696771653E-11
  0.722318655E-11
  0.745030133E-11
  0.764584507E-11
  0.780699314E-11
  0.793137988E-11
  0.801715635E-11
  0.806303610E-11
  0.806832724E-11
  0.803294980E-11
  0.795743777E-11
  0.784292564E-11
  0.769112010E-11
  0.750425767E-11
  0.728504990E-11
  0.703661798E-11
  0.676241882E-11
  0.646616533E-11
  0.615174314E-11
  0.582312660E-11
  0.548429641E-11
  0.513916137E-11
  0.479148618E-11
  0.444482711E-11
  0.410247701E-11
  0.376742042E-11
  0.344229961E-11
  0.312939149E-11
  0.283059526E-11
  0.254743025E-11
  0.228104303E-11
  0.203222272E-11
  0.180142331E-11
  0.158879147E-11
  0.139419869E-11
  0.121727609E-11
  0.105745078E-11
  0.913982500E-12
  0.785999460E-12
  0.672532481E-12
  0.572546717E-12
  0.484970412E-12
  0.408720298E-12
  0.342723448E-12
  0.285935501E-12
  0.237355330E-12
  0.196036323E-12
  0.161094515E-12
  0.131713901E-12
  0.107149245E-12
  0.867267898E-13
  0.698431912E-13
  0.559630694E-13
  0.446154859E-13
  0.353896590E-13
  0.279301827E-13
  0.219319791E-13
  0.171351741E-13
  0.133200504E-13
  0.103021973E-13
  0.792794274E-14
  0.607012727E-14
  0.462425461E-14
  0.350503475E-14
  0.264331894E-14
  0.198341437E-14
  0.148075768E-14
  0.109992020E-14
  0.812914768E-15
  0.597771901E-15
  0.437353523E-15
  0.318373133E-15
  0.230593383E-15
  0.166174324E-15
  0.119148245E-15
  0.849998239E-16
  0.603330182E-16
  0.426087435E-16
  0.299398108E-16
  0.209317734E-16
  0.145602773E-16
  0.100772009E-16
  0.693931873E-17
  0.475445131E-17
  0.324108650E-17
  0.219830267E-17
  0.148351179E-17
  0.996095933E-18
  0.665453908E-18
  0.442324955E-18
  0.292530769E-18
  0.192490062E-18
  0.126023554E-18
  0.820921782E-19
  0.532057397E-19
  0.343100887E-19
  0.220136393E-19
  0.000000000E+00
  0.000000000E+00
  0.000000000E+00
  0.000000000E+00
  0.000000000E+00
  0.000000000E+00
  0.000000000E+00
  0.000000000E+00
  0.000000000E+00
  0.000000000E+00
  0.000000000E+00
  0.000000000E+00
  0.000000000E+00
  0.000000000E+00
  0.000000000E+00
  0.000000000E+00
  0.000000000E+00
  0.000000000E+00
  0.000000000E+00
  0.000000000E+00
  0.000000000E+00
  0.000000000E+00
  0.000000000E+00
  0.000000000E+00
  0.000000000E+00
  0.000000000E+00
  0.000000000E+00
  0.000000000E+00
  0.000000000E+00
  0.000000000E+00
  0.000000000E+00
  0.000000000E+00
  0.000000000E+00
  0.000000000E+00
  0.000000000E+00
  0.000000000E+00
  0.000000000E+00
</data>
</orbital>
<orbital 
 index="                        2" 
 atom_index="                        1" 
 species="Si" 
 Z="                       14" 
 position="   0.000000   0.000000   0.000000" 
 n="                        3" 
 l="                        1" 
 m="                       -1" 
 z="                        1" 
 P="false" 
>
<data>
  0.127361912E-05
  0.184257249E-05
  0.265226093E-05
  0.379852125E-05
  0.541276936E-05
  0.767416502E-05
  0.108255356E-04
  0.151940763E-04
  0.212180693E-04
  0.294811262E-04
  0.407557536E-04
  0.560583659E-04
  0.767182326E-04
  0.104463216E-03
  0.141525549E-03
  0.190771261E-03
  0.255857235E-03
  0.341420114E-03
  0.453301498E-03
  0.598813873E-03
  0.787051593E-03
  0.102925077E-02
  0.133920125E-02
  0.173371275E-02
  0.223313557E-02
  0.286193445E-02
  0.364931142E-02
  0.462987024E-02
  0.584431157E-02
  0.734014352E-02
  0.917238746E-02
  0.114042540E-01
  0.141077586E-01
  0.173642411E-01
  0.212647482E-01
  0.259102337E-01
  0.314115282E-01
  0.378890268E-01
  0.454720447E-01
  0.542977916E-01
  0.645099192E-01
  0.762566072E-01
  0.896881588E-01
  0.104954095E+00
  0.122199750E+00
  0.141562392E+00
  0.163166922E+00
  0.187121201E+00
  0.213511131E+00
  0.242395580E+00
  0.273801308E+00
  0.307718064E+00
  0.344094010E+00
  0.382831693E+00
  0.423784730E+00
  0.466755423E+00
  0.511493467E+00
  0.557695908E+00
  0.605008498E+00
  0.653028508E+00
  0.701309070E+00
  0.749365025E+00
  0.796680216E+00
  0.842716107E+00
  0.886921548E+00
  0.928743457E+00
  0.967638137E+00
  0.100308292E+01
  0.103458778E+01
  0.106170656E+01
  0.108404749E+01
  0.110128256E+01
  0.111315558E+01
  0.111948846E+01
  0.112018570E+01
  0.111523676E+01
  0.110471634E+01
  0.108878249E+01
  0.106767268E+01
  0.104169787E+01
  0.101123496E+01
  0.976717620E+00
  0.938626083E+00
  0.897476042E+00
  0.853807093E+00
  0.808171074E+00
  0.761120633E+00
  0.713198362E+00
  0.664926786E+00
  0.616799437E+00
  0.569273226E+00
  0.522762224E+00
  0.477632956E+00
  0.434201203E+00
  0.392730299E+00
  0.353430840E+00
  0.316461679E+00
  0.281932058E+00
  0.249904712E+00
  0.220399739E+00
  0.193399059E+00
  0.168851253E+00
  0.146676611E+00
  0.126772220E+00
  0.109016936E+00
  0.932761259E-01
  0.794060652E-01
  0.672579306E-01
  0.566813226E-01
  0.475272952E-01
  0.396508838E-01
  0.329131382E-01
  0.271826857E-01
  0.223368581E-01
  0.182624253E-01
  0.148559857E-01
  0.120240601E-01
  0.968294480E-02
  0.775836883E-02
  0.618500474E-02
  0.490587300E-02
  0.387167786E-02
  0.304010635E-02
  0.237511689E-02
  0.184623870E-02
  0.142789857E-02
  0.109878702E-02
  0.841271792E-03
  0.640863865E-03
  0.485737788E-03
  0.366306518E-03
  0.274848931E-03
  0.205187125E-03
  0.152409770E-03
  0.112637282E-03
  0.828243741E-04
  0.605955614E-04
  0.441092947E-04
  0.319467043E-04
  0.230212372E-04
  0.165058505E-04
  0.117748072E-04
  0.835749932E-05
  0.590208615E-05
  0.414707021E-05
  0.289923809E-05
  0.201666158E-05
  0.139568951E-05
  0.961061668E-06
  0.658446275E-06
  0.448844682E-06
  0.304423708E-06
  0.205431723E-06
  0.137931416E-06
  0.921436754E-07
  0.612455467E-07
  0.405032758E-07
  0.266509339E-07
  0.174478277E-07
  0.113651964E-07
  0.736578734E-08
  0.474972052E-08
  0.304735875E-08
  0.000000000E+00
  0.000000000E+00
  0.000000000E+00
  0.000000000E+00
  0.000000000E+00
  0.000000000E+00
  0.000000000E+00
  0.000000000E+00
  0.000000000E+00
  0.000000000E+00
  0.000000000E+00
  0.000000000E+00
  0.000000000E+00
  0.000000000E+00
  0.000000000E+00
  0.000000000E+00
  0.000000000E+00
  0.000000000E+00
  0.000000000E+00
  0.000000000E+00
  0.000000000E+00
  0.000000000E+00
  0.000000000E+00
  0.000000000E+00
  0.000000000E+00
  0.000000000E+00
  0.000000000E+00
  0.000000000E+00
  0.000000000E+00
  0.000000000E+00
  0.000000000E+00
  0.000000000E+00
  0.000000000E+00
  0.000000000E+00
  0.000000000E+00
  0.000000000E+00
  0.000000000E+00
</data>
</orbital>
<orbital 
 index="                        3" 
 atom_index="                        1" 
 species="Si" 
 Z="                       14" 
 position="   0.000000   0.000000   0.000000" 
 n="                        3" 
 l="                        1" 
 m="                        0" 
 z="                        1" 
 P="false" 
>
<data>
  0.127361911E-05
  0.184257248E-05
  0.265226091E-05
  0.379852122E-05
  0.541276933E-05
  0.767416496E-05
  0.108255356E-04
  0.151940762E-04
  0.212180691E-04
  0.294811260E-04
  0.407557533E-04
  0.560583655E-04
  0.767182321E-04
  0.104463216E-03
  0.141525548E-03
  0.190771260E-03
  0.255857234E-03
  0.341420113E-03
  0.453301495E-03
  0.598813870E-03
  0.787051588E-03
  0.102925076E-02
  0.133920125E-02
  0.173371274E-02
  0.223313555E-02
  0.286193444E-02
  0.364931140E-02
  0.462987021E-02
  0.584431154E-02
  0.734014349E-02
  0.917238742E-02
  0.114042540E-01
  0.141077585E-01
  0.173642410E-01
  0.212647481E-01
  0.259102336E-01
  0.314115281E-01
  0.378890266E-01
  0.454720446E-01
  0.542977914E-01
  0.645099189E-01
  0.762566069E-01
  0.896881585E-01
  0.104954095E+00
  0.122199749E+00
  0.141562392E+00
  0.163166921E+00
  0.187121201E+00
  0.213511131E+00
  0.242395579E+00
  0.273801308E+00
  0.307718063E+00
  0.344094010E+00
  0.382831692E+00
  0.423784729E+00
  0.466755422E+00
  0.511493466E+00
  0.557695907E+00
  0.605008497E+00
  0.653028507E+00
  0.701309069E+00
  0.749365024E+00
  0.796680215E+00
  0.842716106E+00
  0.886921547E+00
  0.928743456E+00
  0.967638137E+00
  0.100308292E+01
  0.103458778E+01
  0.106170656E+01
  0.108404749E+01
  0.110128256E+01
  0.111315558E+01
  0.111948846E+01
  0.112018570E+01
  0.111523676E+01
  0.110471634E+01
  0.108878249E+01
  0.106767268E+01
  0.104169787E+01
  0.101123496E+01
  0.976717620E+00
  0.938626084E+00
  0.897476043E+00
  0.853807094E+00
  0.808171075E+00
  0.761120634E+00
  0.713198363E+00
  0.664926787E+00
  0.616799438E+00
  0.569273227E+00
  0.522762225E+00
  0.477632957E+00
  0.434201203E+00
  0.392730300E+00
  0.353430841E+00
  0.316461680E+00
  0.281932059E+00
  0.249904712E+00
  0.220399740E+00
  0.193399060E+00
  0.168851253E+00
  0.146676611E+00
  0.126772220E+00
  0.109016937E+00
  0.932761262E-01
  0.794060654E-01
  0.672579309E-01
  0.566813228E-01
  0.475272953E-01
  0.396508839E-01
  0.329131383E-01
  0.271826858E-01
  0.223368581E-01
  0.182624254E-01
  0.148559857E-01
  0.120240602E-01
  0.968294485E-02
  0.775836887E-02
  0.618500477E-02
  0.490587302E-02
  0.387167788E-02
  0.304010637E-02
  0.237511691E-02
  0.184623871E-02
  0.142789858E-02
  0.109878702E-02
  0.841271796E-03
  0.640863868E-03
  0.485737791E-03
  0.366306520E-03
  0.274848932E-03
  0.205187126E-03
  0.152409771E-03
  0.112637282E-03
  0.828243746E-04
  0.605955618E-04
  0.441092949E-04
  0.319467045E-04
  0.230212374E-04
  0.165058506E-04
  0.117748073E-04
  0.835749937E-05
  0.590208619E-05
  0.414707024E-05
  0.289923811E-05
  0.201666159E-05
  0.139568952E-05
  0.961061675E-06
  0.658446280E-06
  0.448844686E-06
  0.304423711E-06
  0.205431725E-06
  0.137931417E-06
  0.921436761E-07
  0.612455472E-07
  0.405032762E-07
  0.266509341E-07
  0.174478279E-07
  0.113651965E-07
  0.736578741E-08
  0.474972056E-08
  0.304735878E-08
  0.000000000E+00
  0.000000000E+00
  0.000000000E+00
  0.000000000E+00
  0.000000000E+00
  0.000000000E+00
  0.000000000E+00
  0.000000000E+00
  0.000000000E+00
  0.000000000E+00
  0.000000000E+00
  0.000000000E+00
  0.000000000E+00
  0.000000000E+00
  0.000000000E+00
  0.000000000E+00
  0.000000000E+00
  0.000000000E+00
  0.000000000E+00
  0.000000000E+00
  0.000000000E+00
  0.000000000E+00
  0.000000000E+00
  0.000000000E+00
  0.000000000E+00
  0.000000000E+00
  0.000000000E+00
  0.000000000E+00
  0.000000000E+00
  0.000000000E+00
  0.000000000E+00
  0.000000000E+00
  0.000000000E+00
  0.000000000E+00
  0.000000000E+00
  0.000000000E+00
  0.000000000E+00
</data>
</orbital>
<orbital 
 index="                        4" 
 atom_index="                        1" 
 species="Si" 
 Z="                       14" 
 position="   0.000000   0.000000   0.000000" 
 n="                        3" 
 l="                        1" 
 m="                        1" 
 z="                        1" 
 P="false" 
>
<data>
  0.127361910E-05
  0.184257248E-05
  0.265226090E-05
  0.379852122E-05
  0.541276932E-05
  0.767416496E-05
  0.108255356E-04
  0.151940762E-04
  0.212180691E-04
  0.294811260E-04
  0.407557533E-04
  0.560583655E-04
  0.767182321E-04
  0.104463216E-03
  0.141525548E-03
  0.190771260E-03
  0.255857233E-03
  0.341420112E-03
  0.453301495E-03
  0.598813870E-03
  0.787051588E-03
  0.102925076E-02
  0.133920124E-02
  0.173371274E-02
  0.223313555E-02
  0.286193444E-02
  0.364931140E-02
  0.462987021E-02
  0.584431154E-02
  0.734014349E-02
  0.917238742E-02
  0.114042539E-01
  0.141077585E-01
  0.173642410E-01
  0.212647481E-01
  0.259102336E-01
  0.314115281E-01
  0.378890266E-01
  0.454720445E-01
  0.542977913E-01
  0.645099189E-01
  0.762566069E-01
  0.896881585E-01
  0.104954095E+00
  0.122199749E+00
  0.141562392E+00
  0.163166921E+00
  0.187121200E+00
  0.213511131E+00
  0.242395579E+00
  0.273801307E+00
  0.307718063E+00
  0.344094009E+00
  0.382831692E+00
  0.423784729E+00
  0.466755422E+00
  0.511493466E+00
  0.557695907E+00
  0.605008497E+00
  0.653028506E+00
  0.701309069E+00
  0.749365024E+00
  0.796680215E+00
  0.842716106E+00
  0.886921547E+00
  0.928743456E+00
  0.967638137E+00
  0.100308292E+01
  0.103458778E+01
  0.106170656E+01
  0.108404749E+01
  0.110128256E+01
  0.111315558E+01
  0.111948846E+01
  0.112018570E+01
  0.111523676E+01
  0.110471634E+01
  0.108878249E+01
  0.106767268E+01
  0.104169787E+01
  0.101123496E+01
  0.976717621E+00
  0.938626084E+00
  0.897476043E+00
  0.853807095E+00
  0.808171076E+00
  0.761120634E+00
  0.713198364E+00
  0.664926787E+00
  0.616799439E+00
  0.569273227E+00
  0.522762225E+00
  0.477632957E+00
  0.434201204E+00
  0.392730300E+00
  0.353430841E+00
  0.316461680E+00
  0.281932059E+00
  0.249904712E+00
  0.220399740E+00
  0.193399060E+00
  0.168851253E+00
  0.146676611E+00
  0.126772220E+00
  0.109016937E+00
  0.932761262E-01
  0.794060655E-01
  0.672579309E-01
  0.566813228E-01
  0.475272954E-01
  0.396508839E-01
  0.329131383E-01
  0.271826859E-01
  0.223368582E-01
  0.182624254E-01
  0.148559857E-01
  0.120240602E-01
  0.968294485E-02
  0.775836887E-02
  0.618500478E-02
  0.490587303E-02
  0.387167788E-02
  0.304010637E-02
  0.237511691E-02
  0.184623871E-02
  0.142789858E-02
  0.109878702E-02
  0.841271797E-03
  0.640863869E-03
  0.485737791E-03
  0.366306521E-03
  0.274848932E-03
  0.205187126E-03
  0.152409771E-03
  0.112637283E-03
  0.828243747E-04
  0.605955618E-04
  0.441092950E-04
  0.319467046E-04
  0.230212374E-04
  0.165058506E-04
  0.117748073E-04
  0.835749938E-05
  0.590208620E-05
  0.414707025E-05
  0.289923811E-05
  0.201666159E-05
  0.139568952E-05
  0.961061676E-06
  0.658446281E-06
  0.448844686E-06
  0.304423711E-06
  0.205431725E-06
  0.137931418E-06
  0.921436762E-07
  0.612455473E-07
  0.405032762E-07
  0.266509342E-07
  0.174478279E-07
  0.113651965E-07
  0.736578742E-08
  0.474972057E-08
  0.304735878E-08
  0.000000000E+00
  0.000000000E+00
  0.000000000E+00
  0.000000000E+00
  0.000000000E+00
  0.000000000E+00
  0.000000000E+00
  0.000000000E+00
  0.000000000E+00
  0.000000000E+00
  0.000000000E+00
  0.000000000E+00
  0.000000000E+00
  0.000000000E+00
  0.000000000E+00
  0.000000000E+00
  0.000000000E+00
  0.000000000E+00
  0.000000000E+00
  0.000000000E+00
  0.000000000E+00
  0.000000000E+00
  0.000000000E+00
  0.000000000E+00
  0.000000000E+00
  0.000000000E+00
  0.000000000E+00
  0.000000000E+00
  0.000000000E+00
  0.000000000E+00
  0.000000000E+00
  0.000000000E+00
  0.000000000E+00
  0.000000000E+00
  0.000000000E+00
  0.000000000E+00
  0.000000000E+00
</data>
</orbital>
<orbital 
 index="                        5" 
 atom_index="                        1" 
 species="Si" 
 Z="                       14" 
 position="   0.000000   0.000000   0.000000" 
 n="                        3" 
 l="                        2" 
 m="                       -2" 
 z="                        1" 
 P="true" 
>
<data>
  0.329474748E-06
  0.476658288E-06
  0.686118001E-06
  0.982646082E-06
  0.140023874E-05
  0.198524313E-05
  0.280047669E-05
  0.393058210E-05
  0.548893933E-05
  0.762652396E-05
  0.105431770E-04
  0.145018365E-04
  0.198463734E-04
  0.270237717E-04
  0.366114912E-04
  0.493509505E-04
  0.661881547E-04
  0.883225654E-04
  0.117265356E-03
  0.154908206E-03
  0.203603751E-03
  0.266258679E-03
  0.346440311E-03
  0.448497180E-03
  0.577693741E-03
  0.740358824E-03
  0.944046749E-03
  0.119770922E-02
  0.151187518E-02
  0.189883456E-02
  0.237282095E-02
  0.295018641E-02
  0.364956075E-02
  0.449198590E-02
  0.550101491E-02
  0.670276369E-02
  0.812590319E-02
  0.980157863E-02
  0.117632428E-01
  0.140463907E-01
  0.166881839E-01
  0.197269552E-01
  0.232015868E-01
  0.271507586E-01
  0.316120673E-01
  0.366210233E-01
  0.422099368E-01
  0.484067113E-01
  0.552335686E-01
  0.627057372E-01
  0.708301403E-01
  0.796041253E-01
  0.890142827E-01
  0.990354018E-01
  0.109629615E+00
  0.120745779E+00
  0.132319142E+00
  0.144271333E+00
  0.156510710E+00
  0.168933090E+00
  0.181422874E+00
  0.193854553E+00
  0.206094603E+00
  0.218003709E+00
  0.229439292E+00
  0.240258275E+00
  0.250320009E+00
  0.259489282E+00
  0.267639329E+00
  0.274654735E+00
  0.280434149E+00
  0.284892721E+00
  0.287964173E+00
  0.289602437E+00
  0.289782808E+00
  0.288502558E+00
  0.285781012E+00
  0.281659057E+00
  0.276198122E+00
  0.269478655E+00
  0.261598150E+00
  0.252668799E+00
  0.242814833E+00
  0.232169656E+00
  0.220872859E+00
  0.209067197E+00
  0.196895636E+00
  0.184498540E+00
  0.172011081E+00
  0.159560932E+00
  0.147266293E+00
  0.135234280E+00
  0.123559711E+00
  0.112324274E+00
  0.101596093E+00
  0.914296468E-01
  0.818660294E-01
  0.729335009E-01
  0.646482903E-01
  0.570155970E-01
  0.500307436E-01
  0.436804283E-01
  0.379440311E-01
  0.327949291E-01
  0.282017835E-01
  0.241297655E-01
  0.205416951E-01
  0.173990727E-01
  0.146629914E-01
  0.122949199E-01
  0.102573571E-01
  0.851435782E-02
  0.703193696E-02
  0.577836125E-02
  0.472433906E-02
  0.384312117E-02
  0.311052535E-02
  0.250489810E-02
  0.200702614E-02
  0.160000981E-02
  0.126910896E-02
  0.100157119E-02
  0.786450486E-03
  0.614423188E-03
  0.477606753E-03
  0.369385607E-03
  0.284247156E-03
  0.217630088E-03
  0.165786207E-03
  0.125656368E-03
  0.947604813E-04
  0.711011562E-04
  0.530802204E-04
  0.394271532E-04
  0.291383378E-04
  0.214259840E-04
  0.156755731E-04
  0.114107115E-04
  0.826434951E-05
  0.595540463E-05
  0.426992771E-05
  0.304604573E-05
  0.216201631E-05
  0.152682112E-05
  0.107281294E-05
  0.750009039E-06
  0.521693758E-06
  0.361053394E-06
  0.248618747E-06
  0.170334635E-06
  0.116112427E-06
  0.787519091E-07
  0.531434969E-07
  0.356817228E-07
  0.238368109E-07
  0.158437192E-07
  0.104778643E-07
  0.689437740E-08
  0.451360953E-08
  0.294008284E-08
  0.190546861E-08
  0.122871364E-08
  0.788326647E-09
  0.000000000E+00
  0.000000000E+00
  0.000000000E+00
  0.000000000E+00
  0.000000000E+00
  0.000000000E+00
  0.000000000E+00
  0.000000000E+00
  0.000000000E+00
  0.000000000E+00
  0.000000000E+00
  0.000000000E+00
  0.000000000E+00
  0.000000000E+00
  0.000000000E+00
  0.000000000E+00
  0.000000000E+00
  0.000000000E+00
  0.000000000E+00
  0.000000000E+00
  0.000000000E+00
  0.000000000E+00
  0.000000000E+00
  0.000000000E+00
  0.000000000E+00
  0.000000000E+00
  0.000000000E+00
  0.000000000E+00
  0.000000000E+00
  0.000000000E+00
  0.000000000E+00
  0.000000000E+00
  0.000000000E+00
  0.000000000E+00
  0.000000000E+00
  0.000000000E+00
  0.000000000E+00
</data>
</orbital>
<orbital 
 index="                        6" 
 atom_index="                        1" 
 species="Si" 
 Z="                       14" 
 position="   0.000000   0.000000   0.000000" 
 n="                        3" 
 l="                        2" 
 m="                       -1" 
 z="                        1" 
 P="true" 
>
<data>
  0.329474747E-06
  0.476658288E-06
  0.686118000E-06
  0.982646081E-06
  0.140023874E-05
  0.198524312E-05
  0.280047668E-05
  0.393058209E-05
  0.548893933E-05
  0.762652395E-05
  0.105431770E-04
  0.145018364E-04
  0.198463734E-04
  0.270237717E-04
  0.366114911E-04
  0.493509504E-04
  0.661881547E-04
  0.883225653E-04
  0.117265356E-03
  0.154908206E-03
  0.203603751E-03
  0.266258679E-03
  0.346440311E-03
  0.448497179E-03
  0.577693740E-03
  0.740358823E-03
  0.944046748E-03
  0.119770922E-02
  0.151187517E-02
  0.189883456E-02
  0.237282095E-02
  0.295018641E-02
  0.364956074E-02
  0.449198590E-02
  0.550101490E-02
  0.670276368E-02
  0.812590318E-02
  0.980157863E-02
  0.117632428E-01
  0.140463907E-01
  0.166881839E-01
  0.197269552E-01
  0.232015868E-01
  0.271507586E-01
  0.316120672E-01
  0.366210232E-01
  0.422099368E-01
  0.484067113E-01
  0.552335686E-01
  0.627057372E-01
  0.708301402E-01
  0.796041253E-01
  0.890142827E-01
  0.990354017E-01
  0.109629615E+00
  0.120745779E+00
  0.132319142E+00
  0.144271333E+00
  0.156510710E+00
  0.168933090E+00
  0.181422874E+00
  0.193854553E+00
  0.206094603E+00
  0.218003709E+00
  0.229439292E+00
  0.240258275E+00
  0.250320009E+00
  0.259489282E+00
  0.267639329E+00
  0.274654735E+00
  0.280434149E+00
  0.284892721E+00
  0.287964173E+00
  0.289602437E+00
  0.289782808E+00
  0.288502558E+00
  0.285781012E+00
  0.281659057E+00
  0.276198122E+00
  0.269478655E+00
  0.261598150E+00
  0.252668799E+00
  0.242814833E+00
  0.232169656E+00
  0.220872859E+00
  0.209067197E+00
  0.196895636E+00
  0.184498540E+00
  0.172011081E+00
  0.159560932E+00
  0.147266293E+00
  0.135234280E+00
  0.123559711E+00
  0.112324274E+00
  0.101596093E+00
  0.914296468E-01
  0.818660294E-01
  0.729335009E-01
  0.646482903E-01
  0.570155970E-01
  0.500307436E-01
  0.436804283E-01
  0.379440311E-01
  0.327949292E-01
  0.282017836E-01
  0.241297656E-01
  0.205416951E-01
  0.173990728E-01
  0.146629914E-01
  0.122949199E-01
  0.102573571E-01
  0.851435782E-02
  0.703193697E-02
  0.577836125E-02
  0.472433906E-02
  0.384312117E-02
  0.311052536E-02
  0.250489810E-02
  0.200702614E-02
  0.160000981E-02
  0.126910896E-02
  0.100157119E-02
  0.786450487E-03
  0.614423188E-03
  0.477606753E-03
  0.369385607E-03
  0.284247156E-03
  0.217630088E-03
  0.165786207E-03
  0.125656368E-03
  0.947604813E-04
  0.711011562E-04
  0.530802204E-04
  0.394271533E-04
  0.291383378E-04
  0.214259840E-04
  0.156755731E-04
  0.114107116E-04
  0.826434952E-05
  0.595540464E-05
  0.426992771E-05
  0.304604573E-05
  0.216201631E-05
  0.152682113E-05
  0.107281294E-05
  0.750009040E-06
  0.521693758E-06
  0.361053395E-06
  0.248618747E-06
  0.170334635E-06
  0.116112427E-06
  0.787519091E-07
  0.531434970E-07
  0.356817228E-07
  0.238368109E-07
  0.158437192E-07
  0.104778643E-07
  0.689437741E-08
  0.451360953E-08
  0.294008284E-08
  0.190546861E-08
  0.122871364E-08
  0.788326648E-09
  0.000000000E+00
  0.000000000E+00
  0.000000000E+00
  0.000000000E+00
  0.000000000E+00
  0.000000000E+00
  0.000000000E+00
  0.000000000E+00
  0.000000000E+00
  0.000000000E+00
  0.000000000E+00
  0.000000000E+00
  0.000000000E+00
  0.000000000E+00
  0.000000000E+00
  0.000000000E+00
  0.000000000E+00
  0.000000000E+00
  0.000000000E+00
  0.000000000E+00
  0.000000000E+00
  0.000000000E+00
  0.000000000E+00
  0.000000000E+00
  0.000000000E+00
  0.000000000E+00
  0.000000000E+00
  0.000000000E+00
  0.000000000E+00
  0.000000000E+00
  0.000000000E+00
  0.000000000E+00
  0.000000000E+00
  0.000000000E+00
  0.000000000E+00
  0.000000000E+00
  0.000000000E+00
</data>
</orbital>
<orbital 
 index="                        7" 
 atom_index="                        1" 
 species="Si" 
 Z="                       14" 
 position="   0.000000   0.000000   0.000000" 
 n="                        3" 
 l="                        2" 
 m="                        0" 
 z="                        1" 
 P="true" 
>
<data>
  0.666253568E-22
  0.963867489E-22
  0.138740024E-21
  0.198697703E-21
  0.283133057E-21
  0.401416257E-21
  0.566247094E-21
  0.794737423E-21
  0.110980835E-20
  0.154198080E-20
  0.213165339E-20
  0.293197905E-20
  0.401246988E-20
  0.546347998E-20
  0.740173575E-20
  0.997710275E-20
  0.133807964E-19
  0.178552580E-19
  0.237059271E-19
  0.313151437E-19
  0.411584037E-19
  0.538231716E-19
  0.700304145E-19
  0.906589650E-19
  0.116772739E-18
  0.149650725E-18
  0.190819534E-18
  0.242088125E-18
  0.305584127E-18
  0.383790964E-18
  0.479584731E-18
  0.596269505E-18
  0.737609497E-18
  0.907856169E-18
  0.111176820E-17
  0.135462191E-17
  0.164220961E-17
  0.198082330E-17
  0.237722084E-17
  0.283857238E-17
  0.337238434E-17
  0.398639936E-17
  0.468847057E-17
  0.548640966E-17
  0.638780897E-17
  0.739983875E-17
  0.852902213E-17
  0.978099136E-17
  0.111602303E-16
  0.126698097E-16
  0.143111216E-16
  0.160836236E-16
  0.179845999E-16
  0.200089504E-16
  0.221490184E-16
  0.243944656E-16
  0.267322050E-16
  0.291463990E-16
  0.316185303E-16
  0.341275491E-16
  0.366501005E-16
  0.391608301E-16
  0.416327651E-16
  0.440377654E-16
  0.463470332E-16
  0.485316719E-16
  0.505632775E-16
  0.524145461E-16
  0.540598816E-16
  0.554759823E-16
  0.566423887E-16
  0.575419755E-16
  0.581613696E-16
  0.584912807E-16
  0.585267334E-16
  0.582671920E-16
  0.577165737E-16
  0.568831506E-16
  0.557793429E-16
  0.544214104E-16
  0.528290549E-16
  0.510249442E-16
  0.490341763E-16
  0.468837001E-16
  0.446017114E-16
  0.422170435E-16
  0.397585702E-16
  0.372546381E-16
  0.347325435E-16
  0.322180667E-16
  0.297350733E-16
  0.273051898E-16
  0.249475577E-16
  0.226786668E-16
  0.205122666E-16
  0.184593513E-16
  0.165282116E-16
  0.147245471E-16
  0.130516276E-16
  0.115104963E-16
  0.101002024E-16
  0.881805398E-17
  0.765988197E-17
  0.662030580E-17
  0.569299330E-17
  0.487090819E-17
  0.414654005E-17
  0.351211261E-17
  0.295976787E-17
  0.248172421E-17
  0.207040846E-17
  0.171856197E-17
  0.141932225E-17
  0.116628173E-17
  0.953526100E-18
  0.775654551E-18
  0.627784739E-18
  0.505544992E-18
  0.405056419E-18
  0.322907309E-18
  0.256121997E-18
  0.202126164E-18
  0.158710199E-18