   2   2   1   0
  0.1200000E+02  0.2000000E-09  0.3000000E-09  0.4000000E-09  0.5000000E-15
  1.000000000000000E-004
  CAR 
 unknown system                          
     22.41011634    -27.18788102  400      2.17155680      1.00000000
    -27.188  0.0000E+00  0.0000E+00
    -27.064  0.0000E+00  0.0000E+00
    -26.939  0.0000E+00  0.0000E+00
    -26.815  0.0000E+00  0.0000E+00
    -26.691  0.0000E+00  0.0000E+00
    -26.566  0.0000E+00  0.0000E+00
    -26.442  0.0000E+00  0.0000E+00
    -26.318  0.0000E+00  0.0000E+00
    -26.193  0.0000E+00  0.0000E+00
    -26.069  0.0000E+00  0.0000E+00
    -25.945  0.0000E+00  0.0000E+00
    -25.821  0.0000E+00  0.0000E+00
    -25.696  0.0000E+00  0.0000E+00
    -25.572  0.0000E+00  0.0000E+00
    -25.448  0.2860E-11  0.3555E-12
    -25.323  0.2829E-06  0.3516E-07
    -25.199  0.1391E-02  0.1729E-03
    -25.075  0.3667E+00  0.4575E-01
    -24.950  0.6153E+01  0.8105E+00
    -24.826  0.8531E+01  0.1871E+01
    -24.702  0.1029E+01  0.1999E+01
    -24.577  0.8461E-02  0.2000E+01
    -24.453  0.3862E-05  0.2000E+01
    -24.329  0.8892E-10  0.2000E+01
    -24.205  0.0000E+00  0.2000E+01
    -24.080  0.0000E+00  0.2000E+01
    -23.956  0.0000E+00  0.2000E+01
    -23.832  0.0000E+00  0.2000E+01
    -23.707  0.0000E+00  0.2000E+01
    -23.583  0.0000E+00  0.2000E+01
    -23.459  0.0000E+00  0.2000E+01
    -23.334  0.0000E+00  0.2000E+01
    -23.210  0.0000E+00  0.2000E+01
    -23.086  0.0000E+00  0.2000E+01
    -22.961  0.0000E+00  0.2000E+01
    -22.837  0.0000E+00  0.2000E+01
    -22.713  0.0000E+00  0.2000E+01
    -22.589  0.0000E+00  0.2000E+01
    -22.464  0.0000E+00  0.2000E+01
    -22.340  0.0000E+00  0.2000E+01
    -22.216  0.0000E+00  0.2000E+01
    -22.091  0.0000E+00  0.2000E+01
    -21.967  0.0000E+00  0.2000E+01
    -21.843  0.0000E+00  0.2000E+01
    -21.718  0.0000E+00  0.2000E+01
    -21.594  0.0000E+00  0.2000E+01
    -21.470  0.0000E+00  0.2000E+01
    -21.346  0.0000E+00  0.2000E+01
    -21.221  0.0000E+00  0.2000E+01
    -21.097  0.0000E+00  0.2000E+01
    -20.973  0.0000E+00  0.2000E+01
    -20.848  0.0000E+00  0.2000E+01
    -20.724  0.0000E+00  0.2000E+01
    -20.600  0.0000E+00  0.2000E+01
    -20.475  0.0000E+00  0.2000E+01
    -20.351  0.0000E+00  0.2000E+01
    -20.227  0.0000E+00  0.2000E+01
    -20.102  0.0000E+00  0.2000E+01
    -19.978  0.0000E+00  0.2000E+01
    -19.854  0.0000E+00  0.2000E+01
    -19.730  0.0000E+00  0.2000E+01
    -19.605  0.0000E+00  0.2000E+01
    -19.481  0.0000E+00  0.2000E+01
    -19.357  0.0000E+00  0.2000E+01
    -19.232  0.0000E+00  0.2000E+01
    -19.108  0.0000E+00  0.2000E+01
    -18.984  0.0000E+00  0.2000E+01
    -18.859  0.0000E+00  0.2000E+01
    -18.735  0.0000E+00  0.2000E+01
    -18.611  0.0000E+00  0.2000E+01
    -18.486  0.0000E+00  0.2000E+01
    -18.362  0.0000E+00  0.2000E+01
    -18.238  0.0000E+00  0.2000E+01
    -18.114  0.0000E+00  0.2000E+01
    -17.989  0.0000E+00  0.2000E+01
    -17.865  0.0000E+00  0.2000E+01
    -17.741  0.0000E+00  0.2000E+01
    -17.616  0.0000E+00  0.2000E+01
    -17.492  0.0000E+00  0.2000E+01
    -17.368  0.0000E+00  0.2000E+01
    -17.243  0.0000E+00  0.2000E+01
    -17.119  0.0000E+00  0.2000E+01
    -16.995  0.0000E+00  0.2000E+01
    -16.871  0.0000E+00  0.2000E+01
    -16.746  0.0000E+00  0.2000E+01
    -16.622  0.0000E+00  0.2000E+01
    -16.498  0.0000E+00  0.2000E+01
    -16.373  0.0000E+00  0.2000E+01
    -16.249  0.0000E+00  0.2000E+01
    -16.125  0.0000E+00  0.2000E+01
    -16.000  0.0000E+00  0.2000E+01
    -15.876  0.0000E+00  0.2000E+01
    -15.752  0.0000E+00  0.2000E+01
    -15.627  0.0000E+00  0.2000E+01
    -15.503  0.0000E+00  0.2000E+01
    -15.379  0.0000E+00  0.2000E+01
    -15.255  0.0000E+00  0.2000E+01
    -15.130  0.0000E+00  0.2000E+01
    -15.006  0.0000E+00  0.2000E+01
    -14.882  0.0000E+00  0.2000E+01
    -14.757  0.0000E+00  0.2000E+01
    -14.633  0.0000E+00  0.2000E+01
    -14.509  0.0000E+00  0.2000E+01
    -14.384  0.0000E+00  0.2000E+01
    -14.260  0.0000E+00  0.2000E+01
    -14.136  0.0000E+00  0.2000E+01
    -14.011  0.0000E+00  0.2000E+01
    -13.887  0.0000E+00  0.2000E+01
    -13.763  0.0000E+00  0.2000E+01
    -13.639  0.0000E+00  0.2000E+01
    -13.514  0.0000E+00  0.2000E+01
    -13.390  0.0000E+00  0.2000E+01
    -13.266  0.0000E+00  0.2000E+01
    -13.141  0.0000E+00  0.2000E+01
    -13.017  0.0000E+00  0.2000E+01
    -12.893  0.0000E+00  0.2000E+01
    -12.768  0.0000E+00  0.2000E+01
    -12.644  0.0000E+00  0.2000E+01
    -12.520  0.0000E+00  0.2000E+01
    -12.395  0.0000E+00  0.2000E+01
    -12.271  0.0000E+00  0.2000E+01
    -12.147  0.0000E+00  0.2000E+01
    -12.023  0.0000E+00  0.2000E+01
    -11.898  0.0000E+00  0.2000E+01
    -11.774  0.0000E+00  0.2000E+01
    -11.650  0.0000E+00  0.2000E+01
    -11.525  0.0000E+00  0.2000E+01
    -11.401  0.0000E+00  0.2000E+01
    -11.277  0.4360E-11  0.2000E+01
    -11.152  0.3909E-06  0.2000E+01
    -11.028  0.1745E-02  0.2000E+01
    -10.904  0.4192E+00  0.2052E+01
    -10.780  0.6459E+01  0.2855E+01
    -10.655  0.8283E+01  0.3885E+01
    -10.531  0.9195E+00  0.3999E+01
    -10.407  0.6900E-02  0.4000E+01
    -10.282  0.2861E-05  0.4000E+01
    -10.158  0.5972E-10  0.4000E+01
    -10.034  0.0000E+00  0.4000E+01
     -9.909  0.0000E+00  0.4000E+01
     -9.785  0.0000E+00  0.4000E+01
     -9.661  0.0000E+00  0.4000E+01
     -9.536  0.0000E+00  0.4000E+01
     -9.412  0.0000E+00  0.4000E+01
     -9.288  0.0000E+00  0.4000E+01
     -9.164  0.0000E+00  0.4000E+01
     -9.039  0.0000E+00  0.4000E+01
     -8.915  0.0000E+00  0.4000E+01
     -8.791  0.0000E+00  0.4000E+01
     -8.666  0.0000E+00  0.4000E+01
     -8.542  0.0000E+00  0.4000E+01
     -8.418  0.0000E+00  0.4000E+01
     -8.293  0.0000E+00  0.4000E+01
     -8.169  0.0000E+00  0.4000E+01
     -8.045  0.7708E-12  0.4000E+01
     -7.920  0.1031E-06  0.4000E+01
     -7.796  0.6816E-03  0.4000E+01
     -7.672  0.2391E+00  0.4030E+01
     -7.548  0.5218E+01  0.4678E+01
     -7.423  0.9191E+01  0.5821E+01
     -7.299  0.1426E+01  0.5998E+01
     -7.175  0.1549E-01  0.6000E+01
     -7.050  0.9483E-05  0.6000E+01
     -6.926  0.2947E-09  0.6000E+01
     -6.802  0.0000E+00  0.6000E+01
     -6.677  0.0000E+00  0.6000E+01
     -6.553  0.5983E-10  0.6000E+01
     -6.429  0.2865E-05  0.6000E+01
     -6.305  0.6906E-02  0.6001E+01
     -6.180  0.9200E+00  0.6115E+01
     -6.056  0.8285E+01  0.7145E+01
     -5.932  0.6457E+01  0.7948E+01
     -5.807  0.4189E+00  0.8000E+01
     -5.683  0.1743E-02  0.8000E+01
     -5.559  0.3903E-06  0.8000E+01
     -5.434  0.4351E-11  0.8000E+01
     -5.310  0.0000E+00  0.8000E+01
     -5.186  0.0000E+00  0.8000E+01
     -5.061  0.2578E-11  0.8000E+01
     -4.937  0.2612E-06  0.8000E+01
     -4.813  0.1315E-02  0.8000E+01
     -4.689  0.3547E+00  0.8044E+01
     -4.564  0.6077E+01  0.8800E+01
     -4.440  0.8590E+01  0.9867E+01
     -4.316  0.1057E+01  0.9999E+01
     -4.191  0.8890E-02  0.1000E+02
     -4.067  0.4154E-05  0.1000E+02
     -3.943  0.9797E-10  0.1000E+02
     -3.818  0.0000E+00  0.1000E+02
     -3.694  0.0000E+00  0.1000E+02
     -3.570  0.0000E+00  0.1000E+02
     -3.445  0.0000E+00  0.1000E+02
     -3.321  0.0000E+00  0.1000E+02
     -3.197  0.0000E+00  0.1000E+02
     -3.073  0.0000E+00  0.1000E+02
     -2.948  0.0000E+00  0.1000E+02
     -2.824  0.0000E+00  0.1000E+02
     -2.700  0.0000E+00  0.1000E+02
     -2.575  0.0000E+00  0.1000E+02
     -2.451  0.0000E+00  0.1000E+02
     -2.327  0.0000E+00  0.1000E+02
     -2.202  0.0000E+00  0.1000E+02
     -2.078  0.0000E+00  0.1000E+02
     -1.954  0.0000E+00  0.1000E+02
     -1.830  0.0000E+00  0.1000E+02
     -1.705  0.0000E+00  0.1000E+02
     -1.581  0.0000E+00  0.1000E+02
     -1.457  0.0000E+00  0.1000E+02
     -1.332  0.0000E+00  0.1000E+02
     -1.208  0.0000E+00  0.1000E+02
     -1.084  0.0000E+00  0.1000E+02
     -0.959  0.0000E+00  0.1000E+02
     -0.835  0.0000E+00  0.1000E+02
     -0.711  0.0000E+00  0.1000E+02
     -0.586  0.0000E+00  0.1000E+02
     -0.462  0.0000E+00  0.1000E+02
     -0.338  0.0000E+00  0.1000E+02
     -0.214  0.0000E+00  0.1000E+02
     -0.089  0.0000E+00  0.1000E+02
      0.035  0.0000E+00  0.1000E+02
      0.159  0.0000E+00  0.1000E+02
      0.284  0.0000E+00  0.1000E+02
      0.408  0.0000E+00  0.1000E+02
      0.532  0.0000E+00  0.1000E+02
      0.657  0.0000E+00  0.1000E+02
      0.781  0.0000E+00  0.1000E+02
      0.905  0.0000E+00  0.1000E+02
      1.030  0.0000E+00  0.1000E+02
      1.154  0.0000E+00  0.1000E+02
      1.278  0.0000E+00  0.1000E+02
      1.402  0.0000E+00  0.1000E+02
      1.527  0.0000E+00  0.1000E+02
      1.651  0.1468E-11  0.1000E+02
      1.775  0.1694E-06  0.1000E+02
      1.900  0.9692E-03  0.1000E+02
      2.024  0.2957E+00  0.1004E+02
      2.148  0.5672E+01  0.1074E+02
      2.273  0.8889E+01  0.1185E+02
      2.397  0.1311E+01  0.1201E+02
      2.521  0.3449E+01  0.1244E+02
      2.646  0.9943E+01  0.1367E+02
      2.770  0.2569E+01  0.1399E+02
      2.894  0.4918E-01  0.1400E+02
      3.018  0.5486E-04  0.1400E+02
      3.143  0.3153E-08  0.1400E+02
      3.267  0.8931E-14  0.1400E+02
      3.391  0.0000E+00  0.1400E+02
      3.516  0.0000E+00  0.1400E+02
      3.640  0.0000E+00  0.1400E+02
      3.764  0.0000E+00  0.1400E+02
      3.889  0.0000E+00  0.1400E+02
      4.013  0.0000E+00  0.1400E+02
      4.137  0.0000E+00  0.1400E+02
      4.261  0.0000E+00  0.1400E+02
      4.386  0.0000E+00  0.1400E+02
      4.510  0.0000E+00  0.1400E+02
      4.634  0.0000E+00  0.1400E+02
      4.759  0.0000E+00  0.1400E+02
      4.883  0.0000E+00  0.1400E+02
      5.007  0.0000E+00  0.1400E+02
      5.132  0.0000E+00  0.1400E+02
      5.256  0.0000E+00  0.1400E+02
      5.380  0.0000E+00  0.1400E+02
      5.505  0.0000E+00  0.1400E+02
      5.629  0.0000E+00  0.1400E+02
      5.753  0.0000E+00  0.1400E+02
      5.877  0.0000E+00  0.1400E+02
      6.002  0.0000E+00  0.1400E+02
      6.126  0.0000E+00  0.1400E+02
      6.250  0.0000E+00  0.1400E+02
      6.375  0.0000E+00  0.1400E+02
      6.499  0.0000E+00  0.1400E+02
      6.623  0.0000E+00  0.1400E+02
      6.748  0.0000E+00  0.1400E+02
      6.872  0.0000E+00  0.1400E+02
      6.996  0.0000E+00  0.1400E+02
      7.121  0.0000E+00  0.1400E+02
      7.245  0.0000E+00  0.1400E+02
      7.369  0.0000E+00  0.1400E+02
      7.493  0.0000E+00  0.1400E+02
      7.618  0.0000E+00  0.1400E+02
      7.742  0.0000E+00  0.1400E+02
      7.866  0.0000E+00  0.1400E+02
      7.991  0.0000E+00  0.1400E+02
      8.115  0.0000E+00  0.1400E+02
      8.239  0.0000E+00  0.1400E+02
      8.364  0.0000E+00  0.1400E+02
      8.488  0.0000E+00  0.1400E+02
      8.612  0.0000E+00  0.1400E+02
      8.736  0.0000E+00  0.1400E+02
      8.861  0.0000E+00  0.1400E+02
      8.985  0.0000E+00  0.1400E+02
      9.109  0.0000E+00  0.1400E+02
      9.234  0.0000E+00  0.1400E+02
      9.358  0.0000E+00  0.1400E+02
      9.482  0.0000E+00  0.1400E+02
      9.607  0.0000E+00  0.1400E+02
      9.731  0.0000E+00  0.1400E+02
      9.855  0.0000E+00  0.1400E+02
      9.980  0.0000E+00  0.1400E+02
     10.104  0.0000E+00  0.1400E+02
     10.228  0.0000E+00  0.1400E+02
     10.352  0.0000E+00  0.1400E+02
     10.477  0.1786E-14  0.1400E+02
     10.601  0.7967E-09  0.1400E+02
     10.725  0.1988E-04  0.1400E+02
     10.850  0.2534E-01  0.1400E+02
     10.974  0.1843E+01  0.1423E+02
     11.098  0.9610E+01  0.1543E+02
     11.223  0.4448E+01  0.1598E+02
     11.347  0.1627E+00  0.1600E+02
     11.471  0.3634E-03  0.1600E+02
     11.596  0.4270E-07  0.1600E+02
     11.720  0.2465E-12  0.1600E+02
     11.844  0.0000E+00  0.1600E+02
     11.968  0.0000E+00  0.1600E+02
     12.093  0.0000E+00  0.1600E+02
     12.217  0.0000E+00  0.1600E+02
     12.341  0.0000E+00  0.1600E+02
     12.466  0.0000E+00  0.1600E+02
     12.590  0.0000E+00  0.1600E+02
     12.714  0.0000E+00  0.1600E+02
     12.839  0.0000E+00  0.1600E+02
     12.963  0.0000E+00  0.1600E+02
     13.087  0.0000E+00  0.1600E+02
     13.211  0.0000E+00  0.1600E+02
     13.336  0.0000E+00  0.1600E+02
     13.460  0.0000E+00  0.1600E+02
     13.584  0.0000E+00  0.1600E+02
     13.709  0.0000E+00  0.1600E+02
     13.833  0.2539E-11  0.1600E+02
     13.957  0.2582E-06  0.1600E+02
     14.082  0.1304E-02  0.1600E+02
     14.206  0.3530E+00  0.1604E+02
     14.330  0.6066E+01  0.1680E+02
     14.455  0.8598E+01  0.1787E+02
     14.579  0.1061E+01  0.1800E+02
     14.703  0.8955E-02  0.1800E+02
     14.827  0.4199E-05  0.1800E+02
     14.952  0.9938E-10  0.1800E+02
     15.076  0.0000E+00  0.1800E+02
     15.200  0.0000E+00  0.1800E+02
     15.325  0.0000E+00  0.1800E+02
     15.449  0.0000E+00  0.1800E+02
     15.573  0.2992E-12  0.1800E+02
     15.698  0.4953E-07  0.1800E+02
     15.822  0.4041E-03  0.1800E+02
     15.946  0.1737E+00  0.1802E+02
     16.071  0.4574E+01  0.1859E+02
     16.195  0.9550E+01  0.1978E+02
     16.319  0.1768E+01  0.2000E+02
     16.443  0.2338E-01  0.2000E+02
     16.568  0.1760E-04  0.2000E+02
     16.692  0.6760E-09  0.2000E+02
     16.816  0.0000E+00  0.2000E+02
     16.941  0.0000E+00  0.2000E+02
     17.065  0.0000E+00  0.2000E+02
     17.189  0.0000E+00  0.2000E+02
     17.314  0.0000E+00  0.2000E+02
     17.438  0.0000E+00  0.2000E+02
     17.562  0.0000E+00  0.2000E+02
     17.686  0.0000E+00  0.2000E+02
     17.811  0.0000E+00  0.2000E+02
     17.935  0.0000E+00  0.2000E+02
     18.059  0.0000E+00  0.2000E+02
     18.184  0.0000E+00  0.2000E+02
     18.308  0.0000E+00  0.2000E+02
     18.432  0.0000E+00  0.2000E+02
     18.557  0.0000E+00  0.2000E+02
     18.681  0.2617E-12  0.2000E+02
     18.805  0.4459E-07  0.2000E+02
     18.930  0.3748E-03  0.2000E+02
     19.054  0.1658E+00  0.2002E+02
     19.178  0.4484E+01  0.2058E+02
     19.302  0.9593E+01  0.2177E+02
     19.427  0.1821E+01  0.2200E+02
     19.551  0.2475E-01  0.2200E+02
     19.675  0.1919E-04  0.2200E+02
     19.800  0.3862E-05  0.2200E+02
     19.924  0.8461E-02  0.2200E+02
     20.048  0.1029E+01  0.2213E+02
     20.173  0.8531E+01  0.2319E+02
     20.297  0.6153E+01  0.2395E+02
     20.421  0.3667E+00  0.2400E+02
     20.546  0.1391E-02  0.2400E+02
     20.670  0.2829E-06  0.2400E+02
     20.794  0.2860E-11  0.2400E+02
     20.918  0.0000E+00  0.2400E+02
     21.043  0.0000E+00  0.2400E+02
     21.167  0.0000E+00  0.2400E+02
     21.291  0.0000E+00  0.2400E+02
     21.416  0.0000E+00  0.2400E+02
     21.540  0.0000E+00  0.2400E+02
     21.664  0.0000E+00  0.2400E+02
     21.789  0.0000E+00  0.2400E+02
     21.913  0.0000E+00  0.2400E+02
     22.037  0.0000E+00  0.2400E+02
     22.162  0.0000E+00  0.2400E+02
     22.286  0.0000E+00  0.2400E+02
     22.410  0.0000E+00  0.2400E+02
     22.41011634    -27.18788102  400      2.17155680      1.00000000
    -27.188  0.0000E+00  0.0000E+00  0.0000E+00
    -27.064  0.0000E+00  0.0000E+00  0.0000E+00
    -26.939  0.0000E+00  0.0000E+00  0.0000E+00
    -26.815  0.0000E+00  0.0000E+00  0.0000E+00
    -26.691  0.0000E+00  0.0000E+00  0.0000E+00
    -26.566  0.0000E+00  0.0000E+00  0.0000E+00
    -26.442  0.0000E+00  0.0000E+00  0.0000E+00
    -26.318  0.0000E+00  0.0000E+00  0.0000E+00
    -26.193  0.0000E+00  0.0000E+00  0.0000E+00
    -26.069  0.0000E+00  0.0000E+00  0.0000E+00
    -25.945  0.0000E+00  0.0000E+00  0.0000E+00
    -25.821  0.0000E+00  0.0000E+00  0.0000E+00
    -25.696  0.0000E+00  0.0000E+00  0.0000E+00
    -25.572  0.0000E+00  0.0000E+00  0.0000E+00
    -25.448  0.6997E-12  0.3453E-12  0.0000E+00
    -25.323  0.6921E-07  0.3416E-07  0.0000E+00
    -25.199  0.3403E-03  0.1679E-03  0.0000E+00
    -25.075  0.8971E-01  0.4427E-01  0.0000E+00
    -24.950  0.1505E+01  0.7429E+00  0.0000E+00
    -24.826  0.2087E+01  0.1030E+01  0.0000E+00
    -24.702  0.2517E+00  0.1242E+00  0.0000E+00
    -24.577  0.2070E-02  0.1022E-02  0.0000E+00
    -24.453  0.9448E-06  0.4663E-06  0.0000E+00
    -24.329  0.2175E-10  0.1074E-10  0.0000E+00
    -24.205  0.0000E+00  0.0000E+00  0.0000E+00
    -24.080  0.0000E+00  0.0000E+00  0.0000E+00
    -23.956  0.0000E+00  0.0000E+00  0.0000E+00
    -23.832  0.0000E+00  0.0000E+00  0.0000E+00
    -23.707  0.0000E+00  0.0000E+00  0.0000E+00
    -23.583  0.0000E+00  0.0000E+00  0.0000E+00
    -23.459  0.0000E+00  0.0000E+00  0.0000E+00
    -23.334  0.0000E+00  0.0000E+00  0.0000E+00
    -23.210  0.0000E+00  0.0000E+00  0.0000E+00
    -23.086  0.0000E+00  0.0000E+00  0.0000E+00
    -22.961  0.0000E+00  0.0000E+00  0.0000E+00
    -22.837  0.0000E+00  0.0000E+00  0.0000E+00
    -22.713  0.0000E+00  0.0000E+00  0.0000E+00
    -22.589  0.0000E+00  0.0000E+00  0.0000E+00
    -22.464  0.0000E+00  0.0000E+00  0.0000E+00
    -22.340  0.0000E+00  0.0000E+00  0.0000E+00
    -22.216  0.0000E+00  0.0000E+00  0.0000E+00
    -22.091  0.0000E+00  0.0000E+00  0.0000E+00
    -21.967  0.0000E+00  0.0000E+00  0.0000E+00
    -21.843  0.0000E+00  0.0000E+00  0.0000E+00
    -21.718  0.0000E+00  0.0000E+00  0.0000E+00
    -21.594  0.0000E+00  0.0000E+00  0.0000E+00
    -21.470  0.0000E+00  0.0000E+00  0.0000E+00
    -21.346  0.0000E+00  0.0000E+00  0.0000E+00
    -21.221  0.0000E+00  0.0000E+00  0.0000E+00
    -21.097  0.0000E+00  0.0000E+00  0.0000E+00
    -20.973  0.0000E+00  0.0000E+00  0.0000E+00
    -20.848  0.0000E+00  0.0000E+00  0.0000E+00
    -20.724  0.0000E+00  0.0000E+00  0.0000E+00
    -20.600  0.0000E+00  0.0000E+00  0.0000E+00
    -20.475  0.0000E+00  0.0000E+00  0.0000E+00
    -20.351  0.0000E+00  0.0000E+00  0.0000E+00
    -20.227  0.0000E+00  0.0000E+00  0.0000E+00
    -20.102  0.0000E+00  0.0000E+00  0.0000E+00
    -19.978  0.0000E+00  0.0000E+00  0.0000E+00
    -19.854  0.0000E+00  0.0000E+00  0.0000E+00
    -19.730  0.0000E+00  0.0000E+00  0.0000E+00
    -19.605  0.0000E+00  0.0000E+00  0.0000E+00
    -19.481  0.0000E+00  0.0000E+00  0.0000E+00
    -19.357  0.0000E+00  0.0000E+00  0.0000E+00
    -19.232  0.0000E+00  0.0000E+00  0.0000E+00
    -19.108  0.0000E+00  0.0000E+00  0.0000E+00
    -18.984  0.0000E+00  0.0000E+00  0.0000E+00
    -18.859  0.0000E+00  0.0000E+00  0.0000E+00
    -18.735  0.0000E+00  0.0000E+00  0.0000E+00
    -18.611  0.0000E+00  0.0000E+00  0.0000E+00
    -18.486  0.0000E+00  0.0000E+00  0.0000E+00
    -18.362  0.0000E+00  0.0000E+00  0.0000E+00
    -18.238  0.0000E+00  0.0000E+00  0.0000E+00
    -18.114  0.0000E+00  0.0000E+00  0.0000E+00
    -17.989  0.0000E+00  0.0000E+00  0.0000E+00
    -17.865  0.0000E+00  0.0000E+00  0.0000E+00
    -17.741  0.0000E+00  0.0000E+00  0.0000E+00
    -17.616  0.0000E+00  0.0000E+00  0.0000E+00
    -17.492  0.0000E+00  0.0000E+00  0.0000E+00
    -17.368  0.0000E+00  0.0000E+00  0.0000E+00
    -17.243  0.0000E+00  0.0000E+00  0.0000E+00
    -17.119  0.0000E+00  0.0000E+00  0.0000E+00
    -16.995  0.0000E+00  0.0000E+00  0.0000E+00
    -16.871  0.0000E+00  0.0000E+00  0.0000E+00
    -16.746  0.0000E+00  0.0000E+00  0.0000E+00
    -16.622  0.0000E+00  0.0000E+00  0.0000E+00
    -16.498  0.0000E+00  0.0000E+00  0.0000E+00
    -16.373  0.0000E+00  0.0000E+00  0.0000E+00
    -16.249  0.0000E+00  0.0000E+00  0.0000E+00
    -16.125  0.0000E+00  0.0000E+00  0.0000E+00
    -16.000  0.0000E+00  0.0000E+00  0.0000E+00
    -15.876  0.0000E+00  0.0000E+00  0.0000E+00
    -15.752  0.0000E+00  0.0000E+00  0.0000E+00
    -15.627  0.0000E+00  0.0000E+00  0.0000E+00
    -15.503  0.0000E+00  0.0000E+00  0.0000E+00
    -15.379  0.0000E+00  0.0000E+00  0.0000E+00
    -15.255  0.0000E+00  0.0000E+00  0.0000E+00
    -15.130  0.0000E+00  0.0000E+00  0.0000E+00
    -15.006  0.0000E+00  0.0000E+00  0.0000E+00
    -14.882  0.0000E+00  0.0000E+00  0.0000E+00
    -14.757  0.0000E+00  0.0000E+00  0.0000E+00
    -14.633  0.0000E+00  0.0000E+00  0.0000E+00
    -14.509  0.0000E+00  0.0000E+00  0.0000E+00
    -14.384  0.0000E+00  0.0000E+00  0.0000E+00
    -14.260  0.0000E+00  0.0000E+00  0.0000E+00
    -14.136  0.0000E+00  0.0000E+00  0.0000E+00
    -14.011  0.0000E+00  0.0000E+00  0.0000E+00
    -13.887  0.0000E+00  0.0000E+00  0.0000E+00
    -13.763  0.0000E+00  0.0000E+00  0.0000E+00
    -13.639  0.0000E+00  0.0000E+00  0.0000E+00
    -13.514  0.0000E+00  0.0000E+00  0.0000E+00
    -13.390  0.0000E+00  0.0000E+00  0.0000E+00
    -13.266  0.0000E+00  0.0000E+00  0.0000E+00
    -13.141  0.0000E+00  0.0000E+00  0.0000E+00
    -13.017  0.0000E+00  0.0000E+00  0.0000E+00
    -12.893  0.0000E+00  0.0000E+00  0.0000E+00
    -12.768  0.0000E+00  0.0000E+00  0.0000E+00
    -12.644  0.0000E+00  0.0000E+00  0.0000E+00
    -12.520  0.0000E+00  0.0000E+00  0.0000E+00
    -12.395  0.0000E+00  0.0000E+00  0.0000E+00
    -12.271  0.0000E+00  0.0000E+00  0.0000E+00
    -12.147  0.0000E+00  0.0000E+00  0.0000E+00
    -12.023  0.0000E+00  0.0000E+00  0.0000E+00
    -11.898  0.0000E+00  0.0000E+00  0.0000E+00
    -11.774  0.0000E+00  0.0000E+00  0.0000E+00
    -11.650  0.0000E+00  0.0000E+00  0.0000E+00
    -11.525  0.0000E+00  0.0000E+00  0.0000E+00
    -11.401  0.0000E+00  0.0000E+00  0.0000E+00
    -11.277  0.1407E-11  0.9819E-13  0.0000E+00
    -11.152  0.1262E-06  0.8803E-08  0.0000E+00
    -11.028  0.5631E-03  0.3929E-04  0.0000E+00
    -10.904  0.1353E+00  0.9439E-02  0.0000E+00
    -10.780  0.2084E+01  0.1454E+00  0.0000E+00
    -10.655  0.2673E+01  0.1865E+00  0.0000E+00
    -10.531  0.2968E+00  0.2071E-01  0.0000E+00
    -10.407  0.2227E-02  0.1554E-03  0.0000E+00
    -10.282  0.9233E-06  0.6442E-07  0.0000E+00
    -10.158  0.1927E-10  0.1345E-11  0.0000E+00
    -10.034  0.0000E+00  0.0000E+00  0.0000E+00
     -9.909  0.0000E+00  0.0000E+00  0.0000E+00
     -9.785  0.0000E+00  0.0000E+00  0.0000E+00
     -9.661  0.0000E+00  0.0000E+00  0.0000E+00
     -9.536  0.0000E+00  0.0000E+00  0.0000E+00
     -9.412  0.0000E+00  0.0000E+00  0.0000E+00
     -9.288  0.0000E+00  0.0000E+00  0.0000E+00
     -9.164  0.0000E+00  0.0000E+00  0.0000E+00
     -9.039  0.0000E+00  0.0000E+00  0.0000E+00
     -8.915  0.0000E+00  0.0000E+00  0.0000E+00
     -8.791  0.0000E+00  0.0000E+00  0.0000E+00
     -8.666  0.0000E+00  0.0000E+00  0.0000E+00
     -8.542  0.0000E+00  0.0000E+00  0.0000E+00
     -8.418  0.0000E+00  0.0000E+00  0.0000E+00
     -8.293  0.0000E+00  0.0000E+00  0.0000E+00
     -8.169  0.0000E+00  0.0000E+00  0.0000E+00
     -8.045  0.1006E-13  0.2501E-12  0.0000E+00
     -7.920  0.1345E-08  0.3344E-07  0.0000E+00
     -7.796  0.8893E-05  0.2211E-03  0.0000E+00
     -7.672  0.3120E-02  0.7757E-01  0.0000E+00
     -7.548  0.6807E-01  0.1693E+01  0.0000E+00
     -7.423  0.1199E+00  0.2982E+01  0.0000E+00
     -7.299  0.1860E-01  0.4626E+00  0.0000E+00
     -7.175  0.2022E-03  0.5027E-02  0.0000E+00
     -7.050  0.1237E-06  0.3077E-05  0.0000E+00
     -6.926  0.3844E-11  0.9560E-10  0.0000E+00
     -6.802  0.0000E+00  0.0000E+00  0.0000E+00
     -6.677  0.0000E+00  0.0000E+00  0.0000E+00
     -6.553  0.1556E-13  0.1485E-10  0.0000E+00
     -6.429  0.7452E-09  0.7108E-06  0.0000E+00
     -6.305  0.1797E-05  0.1714E-02  0.0000E+00
     -6.180  0.2393E-03  0.2283E+00  0.0000E+00
     -6.056  0.2155E-02  0.2056E+01  0.0000E+00
     -5.932  0.1680E-02  0.1602E+01  0.0000E+00
     -5.807  0.1090E-03  0.1039E+00  0.0000E+00
     -5.683  0.4534E-06  0.4325E-03  0.0000E+00
     -5.559  0.1015E-09  0.9685E-07  0.0000E+00
     -5.434  0.1132E-14  0.1080E-11  0.0000E+00
     -5.310  0.0000E+00  0.0000E+00  0.0000E+00
     -5.186  0.0000E+00  0.0000E+00  0.0000E+00
     -5.061  0.2239E-12  0.5958E-12  0.0000E+00
     -4.937  0.2269E-07  0.6038E-07  0.0000E+00
     -4.813  0.1142E-03  0.3040E-03  0.0000E+00
     -4.689  0.3082E-01  0.8199E-01  0.0000E+00
     -4.564  0.5280E+00  0.1405E+01  0.0000E+00
     -4.440  0.7463E+00  0.1986E+01  0.0000E+00
     -4.316  0.9185E-01  0.2444E+00  0.0000E+00
     -4.191  0.7723E-03  0.2055E-02  0.0000E+00
     -4.067  0.3609E-06  0.9602E-06  0.0000E+00
     -3.943  0.8511E-11  0.2265E-10  0.0000E+00
     -3.818  0.0000E+00  0.0000E+00  0.0000E+00
     -3.694  0.0000E+00  0.0000E+00  0.0000E+00
     -3.570  0.0000E+00  0.0000E+00  0.0000E+00
     -3.445  0.0000E+00  0.0000E+00  0.0000E+00
     -3.321  0.0000E+00  0.0000E+00  0.0000E+00
     -3.197  0.0000E+00  0.0000E+00  0.0000E+00
     -3.073  0.0000E+00  0.0000E+00  0.0000E+00
     -2.948  0.0000E+00  0.0000E+00  0.0000E+00
     -2.824  0.0000E+00  0.0000E+00  0.0000E+00
     -2.700  0.0000E+00  0.0000E+00  0.0000E+00
     -2.575  0.0000E+00  0.0000E+00  0.0000E+00
     -2.451  0.0000E+00  0.0000E+00  0.0000E+00
     -2.327  0.0000E+00  0.0000E+00  0.0000E+00
     -2.202  0.0000E+00  0.0000E+00  0.0000E+00
     -2.078  0.0000E+00  0.0000E+00  0.0000E+00
     -1.954  0.0000E+00  0.0000E+00  0.0000E+00
     -1.830  0.0000E+00  0.0000E+00  0.0000E+00
     -1.705  0.0000E+00  0.0000E+00  0.0000E+00
     -1.581  0.0000E+00  0.0000E+00  0.0000E+00
     -1.457  0.0000E+00  0.0000E+00  0.0000E+00
     -1.332  0.0000E+00  0.0000E+00  0.0000E+00
     -1.208  0.0000E+00  0.0000E+00  0.0000E+00
     -1.084  0.0000E+00  0.0000E+00  0.0000E+00
     -0.959  0.0000E+00  0.0000E+00  0.0000E+00
     -0.835  0.0000E+00  0.0000E+00  0.0000E+00
     -0.711  0.0000E+00  0.0000E+00  0.0000E+00
     -0.586  0.0000E+00  0.0000E+00  0.0000E+00
     -0.462  0.0000E+00  0.0000E+00  0.0000E+00
     -0.338  0.0000E+00  0.0000E+00  0.0000E+00
     -0.214  0.0000E+00  0.0000E+00  0.0000E+00
     -0.089  0.0000E+00  0.0000E+00  0.0000E+00
      0.035  0.0000E+00  0.0000E+00  0.0000E+00
      0.159  0.0000E+00  0.0000E+00  0.0000E+00
      0.284  0.0000E+00  0.0000E+00  0.0000E+00
      0.408  0.0000E+00  0.0000E+00  0.0000E+00
      0.532  0.0000E+00  0.0000E+00  0.0000E+00
      0.657  0.0000E+00  0.0000E+00  0.0000E+00
      0.781  0.0000E+00  0.0000E+00  0.0000E+00
      0.905  0.0000E+00  0.0000E+00  0.0000E+00
      1.030  0.0000E+00  0.0000E+00  0.0000E+00
      1.154  0.0000E+00  0.0000E+00  0.0000E+00
      1.278  0.0000E+00  0.0000E+00  0.0000E+00
      1.402  0.0000E+00  0.0000E+00  0.0000E+00
      1.527  0.0000E+00  0.0000E+00  0.0000E+00
      1.651  0.2640E-14  0.5911E-12  0.0000E+00
      1.775  0.3046E-09  0.6820E-07  0.0000E+00
      1.900  0.1742E-05  0.3901E-03  0.0000E+00
      2.024  0.5315E-03  0.1190E+00  0.0000E+00
      2.148  0.1020E-01  0.2283E+01  0.0000E+00
      2.273  0.1598E-01  0.3578E+01  0.0000E+00
      2.397  0.5393E-02  0.5333E+00  0.0000E+00
      2.521  0.1209E+00  0.1600E+01  0.0000E+00
      2.646  0.3498E+00  0.4616E+01  0.0000E+00
      2.770  0.9037E-01  0.1192E+01  0.0000E+00
      2.894  0.1730E-02  0.2283E-01  0.0000E+00
      3.018  0.1930E-05  0.2546E-04  0.0000E+00
      3.143  0.1109E-09  0.1464E-08  0.0000E+00
      3.267  0.3142E-15  0.4146E-14  0.0000E+00
      3.391  0.0000E+00  0.0000E+00  0.0000E+00
      3.516  0.0000E+00  0.0000E+00  0.0000E+00
      3.640  0.0000E+00  0.0000E+00  0.0000E+00
      3.764  0.0000E+00  0.0000E+00  0.0000E+00
      3.889  0.0000E+00  0.0000E+00  0.0000E+00
      4.013  0.0000E+00  0.0000E+00  0.0000E+00
      4.137  0.0000E+00  0.0000E+00  0.0000E+00
      4.261  0.0000E+00  0.0000E+00  0.0000E+00
      4.386  0.0000E+00  0.0000E+00  0.0000E+00
      4.510  0.0000E+00  0.0000E+00  0.0000E+00
      4.634  0.0000E+00  0.0000E+00  0.0000E+00
      4.759  0.0000E+00  0.0000E+00  0.0000E+00
      4.883  0.0000E+00  0.0000E+00  0.0000E+00
      5.007  0.0000E+00  0.0000E+00  0.0000E+00
      5.132  0.0000E+00  0.0000E+00  0.0000E+00
      5.256  0.0000E+00  0.0000E+00  0.0000E+00
      5.380  0.0000E+00  0.0000E+00  0.0000E+00
      5.505  0.0000E+00  0.0000E+00  0.0000E+00
      5.629  0.0000E+00  0.0000E+00  0.0000E+00
      5.753  0.0000E+00  0.0000E+00  0.0000E+00
      5.877  0.0000E+00  0.0000E+00  0.0000E+00
      6.002  0.0000E+00  0.0000E+00  0.0000E+00
      6.126  0.0000E+00  0.0000E+00  0.0000E+00
      6.250  0.0000E+00  0.0000E+00  0.0000E+00
      6.375  0.0000E+00  0.0000E+00  0.0000E+00
      6.499  0.0000E+00  0.0000E+00  0.0000E+00
      6.623  0.0000E+00  0.0000E+00  0.0000E+00
      6.748  0.0000E+00  0.0000E+00  0.0000E+00
      6.872  0.0000E+00  0.0000E+00  0.0000E+00
      6.996  0.0000E+00  0.0000E+00  0.0000E+00
      7.121  0.0000E+00  0.0000E+00  0.0000E+00
      7.245  0.0000E+00  0.0000E+00  0.0000E+00
      7.369  0.0000E+00  0.0000E+00  0.0000E+00
      7.493  0.0000E+00  0.0000E+00  0.0000E+00
      7.618  0.0000E+00  0.0000E+00  0.0000E+00
      7.742  0.0000E+00  0.0000E+00  0.0000E+00
      7.866  0.0000E+00  0.0000E+00  0.0000E+00
      7.991  0.0000E+00  0.0000E+00  0.0000E+00
      8.115  0.0000E+00  0.0000E+00  0.0000E+00
      8.239  0.0000E+00  0.0000E+00  0.0000E+00
      8.364  0.0000E+00  0.0000E+00  0.0000E+00
      8.488  0.0000E+00  0.0000E+00  0.0000E+00
      8.612  0.0000E+00  0.0000E+00  0.0000E+00
      8.736  0.0000E+00  0.0000E+00  0.0000E+00
      8.861  0.0000E+00  0.0000E+00  0.0000E+00
      8.985  0.0000E+00  0.0000E+00  0.0000E+00
      9.109  0.0000E+00  0.0000E+00  0.0000E+00
      9.234  0.0000E+00  0.0000E+00  0.0000E+00
      9.358  0.0000E+00  0.0000E+00  0.0000E+00
      9.482  0.0000E+00  0.0000E+00  0.0000E+00
      9.607  0.0000E+00  0.0000E+00  0.0000E+00
      9.731  0.0000E+00  0.0000E+00  0.0000E+00
      9.855  0.0000E+00  0.0000E+00  0.0000E+00
      9.980  0.0000E+00  0.0000E+00  0.0000E+00
     10.104  0.0000E+00  0.0000E+00  0.0000E+00
     10.228  0.0000E+00  0.0000E+00  0.0000E+00
     10.352  0.0000E+00  0.0000E+00  0.0000E+00
     10.477  0.4175E-16  0.1428E-15  0.0000E+00
     10.601  0.1862E-10  0.6367E-10  0.0000E+00
     10.725  0.4646E-06  0.1589E-05  0.0000E+00
     10.850  0.5921E-03  0.2025E-02  0.0000E+00
     10.974  0.4307E-01  0.1473E+00  0.0000E+00
     11.098  0.2246E+00  0.7680E+00  0.0000E+00
     11.223  0.1040E+00  0.3555E+00  0.0000E+00
     11.347  0.3802E-02  0.1300E-01  0.0000E+00
     11.471  0.8493E-05  0.2904E-04  0.0000E+00
     11.596  0.9980E-09  0.3413E-08  0.0000E+00
     11.720  0.5761E-14  0.1970E-13  0.0000E+00
     11.844  0.0000E+00  0.0000E+00  0.0000E+00
     11.968  0.0000E+00  0.0000E+00  0.0000E+00
     12.093  0.0000E+00  0.0000E+00  0.0000E+00
     12.217  0.0000E+00  0.0000E+00  0.0000E+00