    2    2    1    1
  0.1200000E+02  0.2000000E-09  0.3000000E-09  0.4000000E-09  0.5000000E-15
  1.000000000000000E-004
  CAR 
 unknown system                          
     11      1     12
 
  0.2500000E+00  0.2500000E+00  0.0000000E+00  0.1000000E+01
    1      -24.933427   1.000000
    2      -10.766614   1.000000
    3       -7.518249   1.000000
    4       -6.068828   1.000000
    5       -4.546293   1.000000
    6        2.171557   0.500000
    7        2.575968   0.000000
    8       11.058456   0.000000
    9       14.348328   0.000000
   10       16.108608   0.000000
   11       19.217494   0.000000
   12       20.155662   0.000000
