 vasp.5.4.4.18Apr17-6-g9f103f2a35 (build Feb 29 2024 11:37:08) complex          
  
 executed on             LinuxIFC date 2024.03.26  13:35:58
 running on   12 total cores
 distrk:  each k-point on   12 cores,    1 groups
 distr:  one band on NCORES_PER_BAND=   1 cores,   12 groups


--------------------------------------------------------------------------------------------------------


 INCAR:
 POTCAR:   PAW_PBE N 08Apr2002                    
 POTCAR:   PAW_PBE O 08Apr2002                    

 ----------------------------------------------------------------------------- 
|                                                                             |
|           W    W    AA    RRRRR   N    N  II  N    N   GGGG   !!!           |
|           W    W   A  A   R    R  NN   N  II  NN   N  G    G  !!!           |
|           W    W  A    A  R    R  N N  N  II  N N  N  G       !!!           |
|           W WW W  AAAAAA  RRRRR   N  N N  II  N  N N  G  GGG   !            |
|           WW  WW  A    A  R   R   N   NN  II  N   NN  G    G                |
|           W    W  A    A  R    R  N    N  II  N    N   GGGG   !!!           |
|                                                                             |
|      For optimal performance we recommend to set                            |
|        NCORE= 4 - approx SQRT( number of cores)                             |
|      NCORE specifies how many cores store one orbital (NPAR=cpu/NCORE).     |
|      This setting can  greatly improve the performance of VASP for DFT.     |
|      The default,   NCORE=1            might be grossly inefficient         |
|      on modern multi-core architectures or massively parallel machines.     |
|      Do your own testing !!!!                                               |
|      Unfortunately you need to use the default for GW and RPA calculations. |
|      (for HF NCORE is supported but not extensively tested yet)             |
|                                                                             |
 ----------------------------------------------------------------------------- 

 POTCAR:   PAW_PBE N 08Apr2002                    
   VRHFIN =N: s2p3                                                              
   LEXCH  = PE                                                                  
   EATOM  =   264.5486 eV,   19.4438 Ry                                         
                                                                                
   TITEL  = PAW_PBE N 08Apr2002                                                 
   LULTRA =        F    use ultrasoft PP ?                                      
   IUNSCR =        0    unscreen: 0-lin 1-nonlin 2-no                           
   RPACOR =     .000    partial core radius                                     
   POMASS =   14.001; ZVAL   =    5.000    mass and valenz                      
   RCORE  =    1.500    outmost cutoff radius                                   
   RWIGS  =    1.400; RWIGS  =     .741    wigner-seitz radius (au A)           
   ENMAX  =  400.000; ENMIN  =  300.000 eV                                      
   ICORE  =        2    local potential                                         
   LCOR   =        T    correct aug charges                                     
   LPAW   =        T    paw PP                                                  
   EAUG   =  627.112                                                            
   DEXC   =     .000                                                            
   RMAX   =    2.247    core radius for proj-oper                               
   RAUG   =    1.300    factor for augmentation sphere                          
   RDEP   =    1.514    radius for radial grids                                 
   QCUT   =   -5.562; QGAM   =   11.124    optimization parameters              
                                                                                
   Description                                                                  
     l     E      TYP  RCUT    TYP  RCUT                                        
     0   .000     23  1.200                                                     
     0   .000     23  1.200                                                     
     1   .000     23  1.500                                                     
     1   .700     23  1.500                                                     
     2   .000      7  1.500                                                     
  local pseudopotential read in
  atomic valenz-charges read in
  non local Contribution for L=           0  read in
    real space projection operators read in
  non local Contribution for L=           0  read in
    real space projection operators read in
  non local Contribution for L=           1  read in
    real space projection operators read in
  non local Contribution for L=           1  read in
    real space projection operators read in
    PAW grid and wavefunctions read in
 
   number of l-projection  operators is LMAX  =           4
   number of lm-projection operators is LMMAX =           8
 
 POTCAR:   PAW_PBE O 08Apr2002                    
   VRHFIN =O: s2p4                                                              
   LEXCH  = PE                                                                  
   EATOM  =   432.3788 eV,   31.7789 Ry                                         
                                                                                
   TITEL  = PAW_PBE O 08Apr2002                                                 
   LULTRA =        F    use ultrasoft PP ?                                      
   IUNSCR =        0    unscreen: 0-lin 1-nonlin 2-no                           
   RPACOR =     .000    partial core radius                                     
   POMASS =   16.000; ZVAL   =    6.000    mass and valenz                      
   RCORE  =    1.520    outmost cutoff radius                                   
   RWIGS  =    1.550; RWIGS  =     .820    wigner-seitz radius (au A)           
   ENMAX  =  400.000; ENMIN  =  300.000 eV                                      
   ICORE  =        2    local potential                                         
   LCOR   =        T    correct aug charges                                     
   LPAW   =        T    paw PP                                                  
   EAUG   =  605.392                                                            
   DEXC   =     .000                                                            
   RMAX   =    2.264    core radius for proj-oper                               
   RAUG   =    1.300    factor for augmentation sphere                          
   RDEP   =    1.550    radius for radial grids                                 
   QCUT   =   -5.520; QGAM   =   11.041    optimization parameters              
                                                                                
   Description                                                                  
     l     E      TYP  RCUT    TYP  RCUT                                        
     0   .000     23  1.200                                                     
     0  -.700     23  1.200                                                     
     1   .000     23  1.520                                                     
     1   .600     23  1.520                                                     
     2   .000      7  1.500                                                     
  local pseudopotential read in
  atomic valenz-charges read in
  non local Contribution for L=           0  read in
    real space projection operators read in
  non local Contribution for L=           0  read in
    real space projection operators read in
  non local Contribution for L=           1  read in
    real space projection operators read in
  non local Contribution for L=           1  read in
    real space projection operators read in
    PAW grid and wavefunctions read in
 
   number of l-projection  operators is LMAX  =           4
   number of lm-projection operators is LMMAX =           8
 

 ----------------------------------------------------------------------------- 
|                                                                             |
|  ADVICE TO THIS USER RUNNING 'VASP/VAMP'   (HEAR YOUR MASTER'S VOICE ...):  |
|                                                                             |
|      You have a (more or less) 'small supercell' and for smaller cells      |
|      it is recommended  to use the reciprocal-space projection scheme!      |
|      The real space optimization is not  efficient for small cells and it   |
|      is also less accurate ...                                              |
|      Therefore set LREAL=.FALSE. in the  INCAR file                         |
|                                                                             |
 ----------------------------------------------------------------------------- 

 Optimization of the real space projectors (new method)

 maximal supplied QI-value         = 25.13
 optimisation between [QCUT,QGAM] = [ 12.32, 24.88] = [ 42.47,173.37] Ry 
 Optimized for a Real-space Cutoff    1.35 Angstroem

   l    n(q)    QCUT    max X(q) W(low)/X(q) W(high)/X(q)  e(spline) 
   0     10    12.315     4.511    0.23E-04    0.46E-05    0.84E-07
   0     10    12.315    37.799    0.59E-04    0.23E-05    0.59E-06
   1     10    12.315     2.478    0.27E-05    0.43E-06    0.89E-07
   1     10    12.315    13.693    0.13E-03    0.24E-03    0.75E-06
 Optimization of the real space projectors (new method)

 maximal supplied QI-value         = 24.76
 optimisation between [QCUT,QGAM] = [ 12.38, 25.00] = [ 42.90,175.06] Ry 
 Optimized for a Real-space Cutoff    1.16 Angstroem

   l    n(q)    QCUT    max X(q) W(low)/X(q) W(high)/X(q)  e(spline) 
   0      9    12.378     4.192    0.16E-04    0.96E-05    0.57E-07
   0      9    12.378     8.473    0.17E-03    0.81E-05    0.33E-06
   1      8    12.378     2.474    0.24E-04    0.82E-05    0.33E-07
   1      8    12.378     3.912    0.18E-03    0.14E-03    0.26E-06
 PAW_PBE N 08Apr2002                    :
 energy of atom  1       EATOM= -264.5486
 kinetic energy error for atom=    0.0103 (will be added to EATOM!!)
 PAW_PBE O 08Apr2002                    :
 energy of atom  2       EATOM= -432.3788
 kinetic energy error for atom=    0.0168 (will be added to EATOM!!)
 
 
 POSCAR: sisl output                             
  positions in direct lattice
  velocities in cartesian coordinates
 exchange correlation table for  LEXCH =        8
   RHO(1)=    0.500       N(1)  =     2000
   RHO(2)=  100.500       N(2)  =     4000
 


--------------------------------------------------------------------------------------------------------


 ion  position               nearest neighbor table
   1  0.500  0.500  0.560-   2 1.19
   2  0.500  0.500  0.263-   1 1.19
 
  LATTYP: Found a simple orthorhombic cell.
 ALAT       =     2.0000000000
 B/A-ratio  =     1.5000000000
 C/A-ratio  =     2.0000000000
  
  Lattice vectors:
  
 A1 = (   2.0000000000,   0.0000000000,   0.0000000000)
 A2 = (   0.0000000000,   3.0000000000,   0.0000000000)
 A3 = (   0.0000000000,   0.0000000000,   4.0000000000)


Analysis of symmetry for initial positions (statically):
=====================================================================
 Subroutine PRICEL returns:
 Original cell was already a primitive cell.
 

 Routine SETGRP: Setting up the symmetry group for a 
 simple orthorhombic supercell.


 Subroutine GETGRP returns: Found  4 space group operations
 (whereof  4 operations were pure point group operations)
 out of a pool of  8 trial point group operations.


The static configuration has the point symmetry C_2v.


Analysis of symmetry for dynamics (positions and initial velocities):
=====================================================================
 Subroutine PRICEL returns:
 Original cell was already a primitive cell.
 

 Routine SETGRP: Setting up the symmetry group for a 
 simple orthorhombic supercell.


 Subroutine GETGRP returns: Found  4 space group operations
 (whereof  4 operations were pure point group operations)
 out of a pool of  8 trial point group operations.


The dynamic configuration has the point symmetry C_2v.


Analysis of constrained symmetry for selective dynamics:
=====================================================================
 Subroutine PRICEL returns:
 Original cell was already a primitive cell.
 

 Routine SETGRP: Setting up the symmetry group for a 
 simple orthorhombic supercell.


 Subroutine GETGRP returns: Found  4 space group operations
 (whereof  4 operations were pure point group operations)
 out of a pool of  8 trial point group operations.


The constrained configuration has the point symmetry C_2v.


 Subroutine INISYM returns: Found  4 space group operations
 (whereof  4 operations are pure point group operations),
 and found     1 'primitive' translations

 
 
 KPOINTS: Automatic generation                    

Automatic generation of k-mesh.
Space group operators:
 irot       det(A)        alpha          n_x          n_y          n_z        tau_x        tau_y        tau_z
    1     1.000000     0.000000     1.000000     0.000000     0.000000     0.000000     0.000000     0.000000
    2     1.000000   180.000000     0.000000     0.000000     1.000000     0.000000     0.000000     0.000000
    3    -1.000000   180.000000     0.000000     1.000000     0.000000     0.000000     0.000000     0.000000
    4    -1.000000   180.000000     1.000000     0.000000     0.000000     0.000000     0.000000     0.000000
 
 Subroutine IBZKPT returns following result:
 ===========================================
 
 Found      1 irreducible k-points:
 
 Following reciprocal coordinates:
            Coordinates               Weight
  0.250000  0.250000  0.000000      4.000000
 
 Following cartesian coordinates:
            Coordinates               Weight
  0.125000  0.083333  0.000000      4.000000
 


--------------------------------------------------------------------------------------------------------




 Dimension of arrays:
   k-points           NKPTS =      1   k-points in BZ     NKDIM =      1   number of bands    NBANDS=     12
   number of dos      NEDOS =    400   number of ions     NIONS =      2
   non local maximal  LDIM  =      4   non local SUM 2l+1 LMDIM =      8
   total plane-waves  NPLWV =  12288
   max r-space proj   IRMAX =   5279   max aug-charges    IRDMAX=   6841
   dimension x,y,z NGX =    16 NGY =   24 NGZ =   32
   dimension x,y,z NGXF=    32 NGYF=   48 NGZF=   64
   support grid    NGXF=    32 NGYF=   48 NGZF=   64
   ions per type =               1   1
   NGX,Y,Z   is equivalent  to a cutoff of  13.30, 13.30, 13.30 a.u.
   NGXF,Y,Z  is equivalent  to a cutoff of  26.60, 26.60, 26.60 a.u.

 SYSTEM =  unknown system                          
 POSCAR =  sisl output                             

 Startparameter for this run:
   NWRITE =      2    write-flag & timer
   PREC   = accura    normal or accurate (medium, high low for compatibility)
   ISTART =      0    job   : 0-new  1-cont  2-samecut
   ICHARG =      2    charge: 1-file 2-atom 10-const
   ISPIN  =      1    spin polarized calculation?
   LNONCOLLINEAR =      F non collinear calculations
   LSORBIT =      F    spin-orbit coupling
   INIWAV =      1    electr: 0-lowe 1-rand  2-diag
   LASPH  =      F    aspherical Exc in radial PAW
   METAGGA=      F    non-selfconsistent MetaGGA calc.

 Electronic Relaxation 1
   ENCUT  =  600.0 eV  44.10 Ry    6.64 a.u.   3.99  5.99  7.99*2*pi/ulx,y,z
   ENINI  =  600.0     initial cutoff
   ENAUG  =  627.1 eV  augmentation charge cutoff
   NELM   =     60;   NELMIN=  2; NELMDL=  0     # of ELM steps 
   EDIFF  = 0.1E-03   stopping-criterion for ELM
   LREAL  =      T    real-space projection
   NLSPLINE    = F    spline interpolate recip. space projectors
   LCOMPAT=      F    compatible to vasp.4.4
   GGA_COMPAT  = T    GGA compatible to vasp.4.4-vasp.4.6
   LMAXPAW     = -100 max onsite density
   LMAXMIX     =    2 max onsite mixed and CHGCAR
   VOSKOWN=      0    Vosko Wilk Nusair interpolation
   ROPT   =   -0.00025  -0.00025
 Ionic relaxation
   EDIFFG = 0.1E-02   stopping-criterion for IOM
   NSW    =      0    number of steps for IOM
   NBLOCK =      1;   KBLOCK =      1    inner block; outer block 
   IBRION =     -1    ionic relax: 0-MD 1-quasi-New 2-CG
   NFREE  =      0    steps in history (QN), initial steepest desc. (CG)
   ISIF   =      2    stress and relaxation
   IWAVPR =     10    prediction:  0-non 1-charg 2-wave 3-comb
   ISYM   =      2    0-nonsym 1-usesym 2-fastsym
   LCORR  =      T    Harris-Foulkes like correction to forces

   POTIM  = 0.5000    time-step for ionic-motion
   TEIN   =    0.0    initial temperature
   TEBEG  =    0.0;   TEEND  =   0.0 temperature during run
   SMASS  =  -3.00    Nose mass-parameter (am)
   estimated Nose-frequenzy (Omega)   =  0.10E-29 period in steps =****** mass=  -0.914E-28a.u.
   SCALEE = 1.0000    scale energy and forces
   NPACO  =    256;   APACO  = 16.0  distance and # of slots for P.C.
   PSTRESS=    0.0 pullay stress

  Mass of Ions in am
   POMASS =  14.00 16.00
  Ionic Valenz
   ZVAL   =   5.00  6.00
  Atomic Wigner-Seitz radii
   RWIGS  =  -1.00 -1.00
  virtual crystal weights 
   VCA    =   1.00  1.00
   NELECT =      11.0000    total number of electrons
   NUPDOWN=      -1.0000    fix difference up-down

 DOS related values:
   EMIN   =  10.00;   EMAX   =-10.00  energy-range for DOS
   EFERMI =   0.00
   ISMEAR =     0;   SIGMA  =   0.10  broadening in eV -4-tet -1-fermi 0-gaus

 Electronic relaxation 2 (details)
   IALGO  =     68    algorithm
   LDIAG  =      T    sub-space diagonalisation (order eigenvalues)
   LSUBROT=      F    optimize rotation matrix (better conditioning)
   TURBO    =      0    0=normal 1=particle mesh
   IRESTART =      0    0=no restart 2=restart with 2 vectors
   NREBOOT  =      0    no. of reboots
   NMIN     =      0    reboot dimension
   EREF     =   0.00    reference energy to select bands
   IMIX   =      4    mixing-type and parameters
     AMIX     =   0.40;   BMIX     =  1.00
     AMIX_MAG =   1.60;   BMIX_MAG =  1.00
     AMIN     =   0.10
     WC   =   100.;   INIMIX=   1;  MIXPRE=   1;  MAXMIX= -45

 Intra band minimization:
   WEIMIN = 0.0000     energy-eigenvalue tresh-hold
   EBREAK =  0.21E-05  absolut break condition
   DEPER  =   0.30     relativ break condition  

   TIME   =   0.40     timestep for ELM

  volume/ion in A,a.u.               =      12.00        80.98
  Fermi-wavevector in a.u.,A,eV,Ry     =   1.262221  2.385251 21.676818  1.593201
  Thomas-Fermi vector in A             =   2.395640
 
 Write flags
   LWAVE        =      F    write WAVECAR
   LDOWNSAMPLE  =      F    k-point downsampling of WAVECAR
   LCHARG       =      F    write CHGCAR
   LVTOT        =      F    write LOCPOT, total local potential
   LVHAR        =      F    write LOCPOT, Hartree potential only
   LELF         =      F    write electronic localiz. function (ELF)
   LORBIT       =     10    0 simple, 1 ext, 2 COOP (PROOUT), +10 PAW based schemes


 Dipole corrections
   LMONO  =      F    monopole corrections only (constant potential shift)
   LDIPOL =      F    correct potential (dipole corrections)
   IDIPOL =      0    1-x, 2-y, 3-z, 4-all directions 
   EPSILON=  1.0000000 bulk dielectric constant

 Exchange correlation treatment:
   GGA     =    --    GGA type
   LEXCH   =     8    internal setting for exchange type
   VOSKOWN=      0    Vosko Wilk Nusair interpolation
   LHFCALC =     F    Hartree Fock is set to
   LHFONE  =     F    Hartree Fock one center treatment
   AEXX    =    0.0000 exact exchange contribution

 Linear response parameters
   LEPSILON=     F    determine dielectric tensor
   LRPA    =     F    only Hartree local field effects (RPA)
   LNABLA  =     F    use nabla operator in PAW spheres
   LVEL    =     F    velocity operator in full k-point grid
   LINTERFAST=   F  fast interpolation
   KINTER  =     0    interpolate to denser k-point grid
   CSHIFT  =0.1000    complex shift for real part using Kramers Kronig
   OMEGAMAX=  -1.0    maximum frequency
   DEG_THRESHOLD= 0.2000000E-02 threshold for treating states as degnerate
   RTIME   =   -0.100 relaxation time in fs
  (WPLASMAI=    0.000 imaginary part of plasma frequency in eV, 0.658/RTIME)
   DFIELD  = 0.0000000 0.0000000 0.0000000 field for delta impulse in time
 
 Orbital magnetization related:
   ORBITALMAG=     F  switch on orbital magnetization
   LCHIMAG   =     F  perturbation theory with respect to B field
   DQ        =  0.001000  dq finite difference perturbation B field
   LLRAUG    =     F  two centre corrections for induced B field



--------------------------------------------------------------------------------------------------------


 Static calculation
 charge density and potential will be updated during run
 non-spin polarized calculation
 RMM-DIIS sequential band-by-band and
  variant of blocked Davidson during initial phase
 perform sub-space diagonalisation
    before iterative eigenvector-optimisation
 modified Broyden-mixing scheme, WC =      100.0
 initial mixing is a Kerker type mixing with AMIX =  0.4000 and BMIX =      1.0000
 Hartree-type preconditioning will be used
 using additional bands            6
 real space projection scheme for non local part
 calculate Harris-corrections to forces 
   (improved forces if not selfconsistent)
 use gradient corrections 
 use of overlap-Matrix (Vanderbilt PP)
 Gauss-broadening in eV      SIGMA  =   0.10


--------------------------------------------------------------------------------------------------------


  energy-cutoff  :      600.00
  volume of cell :       24.00
      direct lattice vectors                 reciprocal lattice vectors
     2.000000000  0.000000000  0.000000000     0.500000000  0.000000000  0.000000000
     0.000000000  3.000000000  0.000000000     0.000000000  0.333333333  0.000000000
     0.000000000  0.000000000  4.000000000     0.000000000  0.000000000  0.250000000

  length of vectors
     2.000000000  3.000000000  4.000000000     0.500000000  0.333333333  0.250000000


 
 k-points in units of 2pi/SCALE and weight: Automatic generation                    
   0.12500000  0.08333333  0.00000000       1.000
 
 k-points in reciprocal lattice and weights: Automatic generation                    
   0.25000000  0.25000000  0.00000000       1.000
 
 position of ions in fractional coordinates (direct lattice) 
   0.50000000  0.50000000  0.55965226
   0.50000000  0.50000000  0.26272429
 
 position of ions in cartesian coordinates  (Angst):
   1.00000000  1.50000000  2.23860902
   1.00000000  1.50000000  1.05089715
 


--------------------------------------------------------------------------------------------------------


 k-point  1 :   0.2500 0.2500 0.0000  plane waves:     798

 maximum and minimum number of plane-waves per node :       798      798

 maximum number of plane-waves:       798
 maximum index in each direction: 
   IXMAX=    3   IYMAX=    5   IZMAX=    7
   IXMIN=   -4   IYMIN=   -6   IZMIN=   -7


 serial   3D FFT for wavefunctions
 parallel 3D FFT for charge:
    minimum data exchange during FFTs selected (reduces bandwidth)


 total amount of memory used by VASP MPI-rank0    32172. kBytes
=======================================================================

   base      :      30000. kBytes
   nonlr-proj:        764. kBytes
   fftplans  :        364. kBytes
   grid      :       1025. kBytes
   one-center:          6. kBytes
   wavefun   :         13. kBytes
 
     INWAV:  cpu time    0.0000: real time    0.0000
 Broyden mixing: mesh for mixing (old mesh)
   NGX =  7   NGY = 11   NGZ = 15
  (NGX  = 32   NGY  = 48   NGZ  = 64)
  gives a total of   1155 points

 initial charge density was supplied:
 charge density of overlapping atoms calculated
 number of electron      11.0000000 magnetization 
 keeping initial charge density in first step


--------------------------------------------------------------------------------------------------------


 Maximum index for non-local projection operator         5061
 Maximum index for augmentation-charges          585 (set IRDMAX)


--------------------------------------------------------------------------------------------------------


 First call to EWALD:  gamma=   0.614
 Maximum number of real-space cells 4x 3x 2
 Maximum number of reciprocal cells 2x 3x 4

    FEWALD:  cpu time    0.0010: real time    0.0010


--------------------------------------- Iteration      1(   1)  ---------------------------------------


    POTLOK:  cpu time    0.0185: real time    0.0213
    SETDIJ:  cpu time    0.0009: real time    0.0009
     EDDAV:  cpu time    0.0044: real time    0.0044
       DOS:  cpu time    0.0002: real time    0.0002
    --------------------------------------------
      LOOP:  cpu time    0.0240: real time    0.0268

 eigenvalue-minimisations  :    24
 total energy-change (2. order) : 0.2846117E+02  (-0.7785498E+03)
 number of electron      11.0000000 magnetization 
 augmentation part       11.0000000 magnetization 

 Free energy of the ion-electron system (eV)
  ---------------------------------------------------
  alpha Z        PSCENC =        20.47869267
  Ewald energy   TEWEN  =      -397.28230925
  -Hartree energ DENC   =      -264.45508261
  -exchange      EXHF   =         0.00000000
  -V(xc)+E(xc)   XCENC  =        47.34017543
  PAW double counting   =       358.04542835     -361.27488502
  entropy T*S    EENTRO =        -0.05641896
  eigenvalues    EBANDS =       -71.23472170
  atomic energy  EATOM  =       696.90028792
  Solvation  Ediel_sol  =         0.00000000
  ---------------------------------------------------
  free energy    TOTEN  =        28.46116683 eV

  energy without entropy =       28.51758579  energy(sigma->0) =       28.48937631


--------------------------------------------------------------------------------------------------------




--------------------------------------- Iteration      1(   2)  ---------------------------------------


     EDDAV:  cpu time    0.0032: real time    0.0034
       DOS:  cpu time    0.0001: real time    0.0001
    --------------------------------------------
      LOOP:  cpu time    0.0033: real time    0.0035

 eigenvalue-minimisations  :    24
 total energy-change (2. order) :-0.3938764E+02  (-0.3938764E+02)
 number of electron      11.0000000 magnetization 
 augmentation part       11.0000000 magnetization 

 Free energy of the ion-electron system (eV)
  ---------------------------------------------------
  alpha Z        PSCENC =        20.47869267
  Ewald energy   TEWEN  =      -397.28230925
  -Hartree energ DENC   =      -264.45508261
  -exchange      EXHF   =         0.00000000
  -V(xc)+E(xc)   XCENC  =        47.34017543
  PAW double counting   =       358.04542835     -361.27488502
  entropy T*S    EENTRO =        -0.05641896
  eigenvalues    EBANDS =      -110.62236109
  atomic energy  EATOM  =       696.90028792
  Solvation  Ediel_sol  =         0.00000000
  ---------------------------------------------------
  free energy    TOTEN  =       -10.92647255 eV

  energy without entropy =      -10.87005360  energy(sigma->0) =      -10.89826308


--------------------------------------------------------------------------------------------------------




--------------------------------------- Iteration      1(   3)  ---------------------------------------


     EDDAV:  cpu time    0.0059: real time    0.0061
       DOS:  cpu time    0.0001: real time    0.0001
    --------------------------------------------
      LOOP:  cpu time    0.0060: real time    0.0063

 eigenvalue-minimisations  :    48
 total energy-change (2. order) :-0.6282601E+00  (-0.6282601E+00)
 number of electron      11.0000000 magnetization 
 augmentation part       11.0000000 magnetization 

 Free energy of the ion-electron system (eV)
  ---------------------------------------------------
  alpha Z        PSCENC =        20.47869267
  Ewald energy   TEWEN  =      -397.28230925
  -Hartree energ DENC   =      -264.45508261
  -exchange      EXHF   =         0.00000000
  -V(xc)+E(xc)   XCENC  =        47.34017543
  PAW double counting   =       358.04542835     -361.27488502
  entropy T*S    EENTRO =        -0.05641896
  eigenvalues    EBANDS =      -111.25062115
  atomic energy  EATOM  =       696.90028792
  Solvation  Ediel_sol  =         0.00000000
  ---------------------------------------------------
  free energy    TOTEN  =       -11.55473262 eV

  energy without entropy =      -11.49831367  energy(sigma->0) =      -11.52652314


--------------------------------------------------------------------------------------------------------




--------------------------------------- Iteration      1(   4)  ---------------------------------------


     EDDAV:  cpu time    0.0028: real time    0.0029
       DOS:  cpu time    0.0002: real time    0.0002
    --------------------------------------------
      LOOP:  cpu time    0.0030: real time    0.0031

 eigenvalue-minimisations  :    24
 total energy-change (2. order) :-0.9661566E-04  (-0.9661540E-04)
 number of electron      11.0000000 magnetization 
 augmentation part       11.0000000 magnetization 

 Free energy of the ion-electron system (eV)
  ---------------------------------------------------
  alpha Z        PSCENC =        20.47869267
  Ewald energy   TEWEN  =      -397.28230925
  -Hartree energ DENC   =      -264.45508261
  -exchange      EXHF   =         0.00000000
  -V(xc)+E(xc)   XCENC  =        47.34017543
  PAW double counting   =       358.04542835     -361.27488502
  entropy T*S    EENTRO =        -0.05641896
  eigenvalues    EBANDS =      -111.25071777
  atomic energy  EATOM  =       696.90028792
  Solvation  Ediel_sol  =         0.00000000
  ---------------------------------------------------
  free energy    TOTEN  =       -11.55482924 eV

  energy without entropy =      -11.49841028  energy(sigma->0) =      -11.52661976


--------------------------------------------------------------------------------------------------------




--------------------------------------- Iteration      1(   5)  ---------------------------------------


     EDDAV:  cpu time    0.0039: real time    0.0041
       DOS:  cpu time    0.0001: real time    0.0001
    CHARGE:  cpu time    0.0019: real time    0.0019
    MIXING:  cpu time    0.0002: real time    0.0002
    --------------------------------------------
      LOOP:  cpu time    0.0061: real time    0.0063

 eigenvalue-minimisations  :    36
 total energy-change (2. order) :-0.1770020E-06  (-0.1770697E-06)
 number of electron      11.0000001 magnetization 
 augmentation part        0.7827461 magnetization 

 Broyden mixing:
  rms(total) = 0.49113E+00    rms(broyden)= 0.48975E+00
  rms(prec ) = 0.89507E+00
  weight for this iteration     100.00

 Free energy of the ion-electron system (eV)
  ---------------------------------------------------
  alpha Z        PSCENC =        20.47869267
  Ewald energy   TEWEN  =      -397.28230925
  -Hartree energ DENC   =      -264.45508261
  -exchange      EXHF   =         0.00000000
  -V(xc)+E(xc)   XCENC  =        47.34017543
  PAW double counting   =       358.04542835     -361.27488502
  entropy T*S    EENTRO =        -0.05641896
  eigenvalues    EBANDS =      -111.25071795
  atomic energy  EATOM  =       696.90028792
  Solvation  Ediel_sol  =         0.00000000
  ---------------------------------------------------
  free energy    TOTEN  =       -11.55482942 eV

  energy without entropy =      -11.49841046  energy(sigma->0) =      -11.52661994


--------------------------------------------------------------------------------------------------------




--------------------------------------- Iteration      1(   6)  ---------------------------------------


    POTLOK:  cpu time    0.0034: real time    0.0035
    SETDIJ:  cpu time    0.0008: real time    0.0008
    EDDIAG:  cpu time    0.0037: real time    0.0037
  RMM-DIIS:  cpu time    0.0031: real time    0.0031
    ORTHCH:  cpu time    0.0002: real time    0.0002
       DOS:  cpu time    0.0001: real time    0.0001
    CHARGE:  cpu time    0.0016: real time    0.0016
    MIXING:  cpu time    0.0002: real time    0.0002
    --------------------------------------------
      LOOP:  cpu time    0.0131: real time    0.0133

 eigenvalue-minimisations  :    25
 total energy-change (2. order) : 0.2390449E+00  (-0.3167590E-01)
 number of electron      11.0000001 magnetization 
 augmentation part        0.7365599 magnetization 

 Broyden mixing:
  rms(total) = 0.27911E+00    rms(broyden)= 0.27890E+00
  rms(prec ) = 0.55861E+00
  weight for this iteration     100.00

 eigenvalues of (default mixing * dielectric matrix)
  average eigenvalue GAMMA=   0.9882
  0.9882

 Free energy of the ion-electron system (eV)
  ---------------------------------------------------
  alpha Z        PSCENC =        20.47869267
  Ewald energy   TEWEN  =      -397.28230925
  -Hartree energ DENC   =      -269.26894813
  -exchange      EXHF   =         0.00000000
  -V(xc)+E(xc)   XCENC  =        47.74906575
  PAW double counting   =       396.46300961     -399.78896172
  entropy T*S    EENTRO =        -0.05641896
  eigenvalues    EBANDS =      -106.51020236
  atomic energy  EATOM  =       696.90028792
  Solvation  Ediel_sol  =         0.00000000
  ---------------------------------------------------
  free energy    TOTEN  =       -11.31578447 eV

  energy without entropy =      -11.25936552  energy(sigma->0) =      -11.28757499


--------------------------------------------------------------------------------------------------------




--------------------------------------- Iteration      1(   7)  ---------------------------------------


    POTLOK:  cpu time    0.0039: real time    0.0041
    SETDIJ:  cpu time    0.0009: real time    0.0009
    EDDIAG:  cpu time    0.0018: real time    0.0018
  RMM-DIIS:  cpu time    0.0025: real time    0.0025
    ORTHCH:  cpu time    0.0007: real time    0.0007
       DOS:  cpu time    0.0002: real time    0.0002
    CHARGE:  cpu time    0.0018: real time    0.0019
    MIXING:  cpu time    0.0002: real time    0.0003
    --------------------------------------------
      LOOP:  cpu time    0.0121: real time    0.0123

 eigenvalue-minimisations  :    24
 total energy-change (2. order) : 0.7547917E-01  (-0.5139754E-02)
 number of electron      11.0000001 magnetization 
 augmentation part        0.7532760 magnetization 

 Broyden mixing:
  rms(total) = 0.16848E+00    rms(broyden)= 0.16841E+00
  rms(prec ) = 0.30227E+00
  weight for this iteration     100.00

 eigenvalues of (default mixing * dielectric matrix)
  average eigenvalue GAMMA=   1.2962
  2.0460  0.5464

 Free energy of the ion-electron system (eV)
  ---------------------------------------------------
  alpha Z        PSCENC =        20.47869267
  Ewald energy   TEWEN  =      -397.28230925
  -Hartree energ DENC   =      -269.17395256
  -exchange      EXHF   =         0.00000000
  -V(xc)+E(xc)   XCENC  =        47.81099335
  PAW double counting   =       410.02628446     -413.33034587
  entropy T*S    EENTRO =        -0.05641896
  eigenvalues    EBANDS =      -106.61353706
  atomic energy  EATOM  =       696.90028792
  Solvation  Ediel_sol  =         0.00000000
  ---------------------------------------------------
  free energy    TOTEN  =       -11.24030530 eV

  energy without entropy =      -11.18388634  energy(sigma->0) =      -11.21209582


--------------------------------------------------------------------------------------------------------




--------------------------------------- Iteration      1(   8)  ---------------------------------------


    POTLOK:  cpu time    0.0035: real time    0.0036
    SETDIJ:  cpu time    0.0008: real time    0.0008
    EDDIAG:  cpu time    0.0009: real time    0.0009
  RMM-DIIS:  cpu time    0.0015: real time    0.0015
    ORTHCH:  cpu time    0.0001: real time    0.0001
       DOS:  cpu time    0.0001: real time    0.0001
    CHARGE:  cpu time    0.0017: real time    0.0017
    MIXING:  cpu time    0.0008: real time    0.0008
    --------------------------------------------
      LOOP:  cpu time    0.0094: real time    0.0096

 eigenvalue-minimisations  :    24
 total energy-change (2. order) : 0.2829007E-01  (-0.4817957E-02)
 number of electron      11.0000001 magnetization 
 augmentation part        0.7415255 magnetization 

 Broyden mixing:
  rms(total) = 0.34922E-01    rms(broyden)= 0.34896E-01
  rms(prec ) = 0.56395E-01
  weight for this iteration     100.00

 eigenvalues of (default mixing * dielectric matrix)
  average eigenvalue GAMMA=   1.5378
  2.4016  1.6672  0.5445

 Free energy of the ion-electron system (eV)
  ---------------------------------------------------
  alpha Z        PSCENC =        20.47869267
  Ewald energy   TEWEN  =      -397.28230925
  -Hartree energ DENC   =      -270.79624416
  -exchange      EXHF   =         0.00000000
  -V(xc)+E(xc)   XCENC  =        47.99441211
  PAW double counting   =       436.81538771     -440.12795677
  entropy T*S    EENTRO =        -0.05641896
  eigenvalues    EBANDS =      -105.13786650
  atomic energy  EATOM  =       696.90028792
  Solvation  Ediel_sol  =         0.00000000
  ---------------------------------------------------
  free energy    TOTEN  =       -11.21201523 eV

  energy without entropy =      -11.15559627  energy(sigma->0) =      -11.18380575


--------------------------------------------------------------------------------------------------------




--------------------------------------- Iteration      1(   9)  ---------------------------------------


    POTLOK:  cpu time    0.0038: real time    0.0039
    SETDIJ:  cpu time    0.0008: real time    0.0008
    EDDIAG:  cpu time    0.0008: real time    0.0008
  RMM-DIIS:  cpu time    0.0020: real time    0.0021
    ORTHCH:  cpu time    0.0002: real time    0.0001
       DOS:  cpu time    0.0001: real time    0.0001
    CHARGE:  cpu time    0.0015: real time    0.0015
    MIXING:  cpu time    0.0002: real time    0.0002
    --------------------------------------------
      LOOP:  cpu time    0.0095: real time    0.0097

 eigenvalue-minimisations  :    24
 total energy-change (2. order) : 0.1943169E-03  (-0.1615356E-03)
 number of electron      11.0000001 magnetization 
 augmentation part        0.7410764 magnetization 

 Broyden mixing:
  rms(total) = 0.76657E-02    rms(broyden)= 0.76444E-02
  rms(prec ) = 0.18598E-01
  weight for this iteration     100.00

 eigenvalues of (default mixing * dielectric matrix)
  average eigenvalue GAMMA=   1.5755
  0.5463  2.5196  1.8868  1.3492

 Free energy of the ion-electron system (eV)
  ---------------------------------------------------
  alpha Z        PSCENC =        20.47869267
  Ewald energy   TEWEN  =      -397.28230925
  -Hartree energ DENC   =      -270.48534279
  -exchange      EXHF   =         0.00000000
  -V(xc)+E(xc)   XCENC  =        47.98187755
  PAW double counting   =       442.67546385     -445.96312513
  entropy T*S    EENTRO =        -0.05641896
  eigenvalues    EBANDS =      -105.46094675
  atomic energy  EATOM  =       696.90028792
  Solvation  Ediel_sol  =         0.00000000
  ---------------------------------------------------
  free energy    TOTEN  =       -11.21182091 eV

  energy without entropy =      -11.15540195  energy(sigma->0) =      -11.18361143


--------------------------------------------------------------------------------------------------------




--------------------------------------- Iteration      1(  10)  ---------------------------------------


    POTLOK:  cpu time    0.0035: real time    0.0037
    SETDIJ:  cpu time    0.0009: real time    0.0009
    EDDIAG:  cpu time    0.0009: real time    0.0009
  RMM-DIIS:  cpu time    0.0026: real time    0.0026
    ORTHCH:  cpu time    0.0002: real time    0.0002
       DOS:  cpu time    0.0001: real time    0.0001
    --------------------------------------------
      LOOP:  cpu time    0.0081: real time    0.0083

 eigenvalue-minimisations  :    19
 total energy-change (2. order) : 0.2819379E-04  (-0.1393918E-04)
 number of electron      11.0000001 magnetization 
 augmentation part        0.7410764 magnetization 

 Free energy of the ion-electron system (eV)
  ---------------------------------------------------
  alpha Z        PSCENC =        20.47869267
  Ewald energy   TEWEN  =      -397.28230925
  -Hartree energ DENC   =      -270.45366530
  -exchange      EXHF   =         0.00000000
  -V(xc)+E(xc)   XCENC  =        47.97969575
  PAW double counting   =       443.08220641     -446.36501882
  entropy T*S    EENTRO =        -0.05641896
  eigenvalues    EBANDS =      -105.49526313
  atomic energy  EATOM  =       696.90028792
  Solvation  Ediel_sol  =         0.00000000
  ---------------------------------------------------
  free energy    TOTEN  =       -11.21179272 eV

  energy without entropy =      -11.15537376  energy(sigma->0) =      -11.18358324


--------------------------------------------------------------------------------------------------------




 average (electrostatic) potential at core
  the test charge radii are     0.7089  0.7215
  (the norm of the test charge is              1.0000)
       1 -70.7304       2 -77.6930
 
 
 
 E-fermi :   2.1716     XC(G=0):  -8.9760     alpha+bet : -6.7415


 k-point     1 :       0.2500    0.2500    0.0000
  band No.  band energies     occupation 
      1     -24.9334      2.00000
      2     -10.7666      2.00000
      3      -7.5182      2.00000
      4      -6.0688      2.00000
      5      -4.5463      2.00000
      6       2.1716      1.00000
      7       2.5760      0.00000
      8      11.0585      0.00000
      9      14.3483      0.00000
     10      16.1086      0.00000
     11      19.2175      0.00000
     12      20.1557      0.00000


--------------------------------------------------------------------------------------------------------


 soft charge-density along one line, spin component           1
         0         1         2         3         4         5         6         7         8         9
 total charge-density along one line
 
 pseudopotential strength for first ion, spin component:           1
 13.548   0.058   0.000   0.011   0.000   0.000   0.021   0.000
  0.058   0.005   0.000   0.001   0.000   0.000   0.000   0.000
  0.000   0.000  -6.916   0.000   0.000  -0.030   0.000   0.000
  0.011   0.001   0.000  -7.008   0.000   0.000  -0.052   0.000
  0.000   0.000   0.000   0.000  -6.988   0.000   0.000  -0.043
  0.000   0.000  -0.030   0.000   0.000   0.894   0.000   0.000
  0.021   0.000   0.000  -0.052   0.000   0.000   0.892   0.000
  0.000   0.000   0.000   0.000  -0.043   0.000   0.000   0.891
 total augmentation occupancy for first ion, spin component:           1
  1.885  -0.276   0.000   0.170   0.000   0.000   0.091   0.000
 -0.276   0.748   0.000   0.675   0.000   0.000  -0.333   0.000
  0.000   0.000   1.444   0.000   0.000  -0.082   0.000   0.000
  0.170   0.675   0.000   1.336   0.000   0.000  -0.378   0.000
  0.000   0.000   0.000   0.000   0.802   0.000   0.000  -0.161
  0.000   0.000  -0.082   0.000   0.000   0.036   0.000   0.000
  0.091  -0.333   0.000  -0.378   0.000   0.000   0.174   0.000
  0.000   0.000   0.000   0.000  -0.161   0.000   0.000   0.039


------------------------ aborting loop because EDIFF is reached ----------------------------------------


 


 total charge     
 
# of ion       s       p       d       tot
------------------------------------------
    1        1.337   2.297   0.000   3.633
    2        1.630   3.423   0.000   5.053
--------------------------------------------------
tot          2.967   5.719   0.000   8.687
 
    CHARGE:  cpu time    0.0017: real time    0.0017
    FORLOC:  cpu time    0.0003: real time    0.0003
    FORNL :  cpu time    0.0045: real time    0.0045
    STRESS:  cpu time    0.0136: real time    0.0137
    FORHAR:  cpu time    0.0010: real time    0.0010
    MIXING:  cpu time    0.0003: real time    0.0003
    OFIELD:  cpu time    0.0000: real time    0.0000

  FORCE on cell =-STRESS in cart. coord.  units (eV):
  Direction    XX          YY          ZZ          XY          YZ          ZX
  --------------------------------------------------------------------------------------
  Alpha Z    20.47869    20.47869    20.47869
  Ewald     -16.11951  -314.18602   -66.97695     0.00000    -0.00000     0.00000
  Hartree   185.28157    20.04350    65.26042    -0.00000    -0.00000    -0.00000
  E(xc)     -50.28255   -50.92734   -49.74123     0.00000    -0.00000     0.00000
  Local    -335.77965   101.53630  -145.09600     0.00000     0.00000    -0.00000
  n-local   -26.72552   -33.49285   -36.67631     0.06436    -0.00000    -0.00000
  augment     6.20879     8.11423     6.02826     0.00000     0.00000    -0.00000
  Kinetic   224.20228   248.91887   204.28139    -2.93564     0.00000     0.00000
  Fock        0.00000     0.00000     0.00000     0.00000     0.00000     0.00000
  -------------------------------------------------------------------------------------
  Total       7.26410     0.48537    -2.44173     0.00000     0.00000     0.00000
  in kB     484.93245    32.40235  -163.00347     0.00000     0.00000     0.00000
  external pressure =      118.11 kB  Pullay stress =        0.00 kB


 VOLUME and BASIS-vectors are now :
 -----------------------------------------------------------------------------
  energy-cutoff  :      600.00
  volume of cell :       24.00
      direct lattice vectors                 reciprocal lattice vectors
     2.000000000  0.000000000  0.000000000     0.500000000  0.000000000  0.000000000
     0.000000000  3.000000000  0.000000000     0.000000000  0.333333333  0.000000000
     0.000000000  0.000000000  4.000000000     0.000000000  0.000000000  0.250000000

  length of vectors
     2.000000000  3.000000000  4.000000000     0.500000000  0.333333333  0.250000000


 FORCES acting on ions
    electron-ion (+dipol)            ewald-force                    non-local-force                 convergence-correction
 -----------------------------------------------------------------------------------------------
   0.362E-13 0.133E-12 -.273E+03   0.212E-16 0.191E-15 0.311E+03   0.000E+00 0.000E+00 -.383E+02   0.134E-14 -.332E-14 0.934E-01
   0.551E-13 0.639E-13 0.254E+03   -.675E-16 -.377E-16 -.311E+03   0.000E+00 0.000E+00 0.567E+02   -.102E-13 0.154E-13 0.977E-01
 -----------------------------------------------------------------------------------------------
   0.913E-13 0.197E-12 -.186E+02   -.463E-16 0.153E-15 0.000E+00   0.000E+00 0.000E+00 0.184E+02   -.889E-14 0.121E-13 0.191E+00
 
 
 POSITION                                       TOTAL-FORCE (eV/Angst)
 -----------------------------------------------------------------------------------
      1.00000      1.50000      2.23861         0.000000      0.000000     -0.010949
      1.00000      1.50000      1.05090         0.000000      0.000000      0.010949
 -----------------------------------------------------------------------------------
    total drift:                                0.000000      0.000000      0.017352


--------------------------------------------------------------------------------------------------------



  FREE ENERGIE OF THE ION-ELECTRON SYSTEM (eV)
  ---------------------------------------------------
  free  energy   TOTEN  =       -11.21179272 eV

  energy  without entropy=      -11.15537376  energy(sigma->0) =      -11.18358324
 


--------------------------------------------------------------------------------------------------------


    POTLOK:  cpu time    0.0042: real time    0.0043


--------------------------------------------------------------------------------------------------------


     LOOP+:  cpu time    0.1232: real time    0.1302
    4ORBIT:  cpu time    0.0000: real time    0.0000
 


 total charge     
 
# of ion       s       p       d       tot
------------------------------------------
    1        1.337   2.297   0.000   3.633
    2        1.630   3.423   0.000   5.053
--------------------------------------------------
tot          2.967   5.719   0.000   8.687
 

 total amount of memory used by VASP MPI-rank0    32172. kBytes
=======================================================================

   base      :      30000. kBytes
   nonlr-proj:        764. kBytes
   fftplans  :        364. kBytes
   grid      :       1025. kBytes
   one-center:          6. kBytes
   wavefun   :         13. kBytes
 
  
  
 General timing and accounting informations for this job:
 ========================================================
  
                  Total CPU time used (sec):        1.095
                            User time (sec):        0.925
                          System time (sec):        0.170
                         Elapsed time (sec):        1.789
  
                   Maximum memory used (kb):      285936.
                   Average memory used (kb):           0.
  
                          Minor page faults:        12542
                          Major page faults:            0
                 Voluntary context switches:         3763
