PROCAR new format
# of k-points:    1         # of bands:   12         # of ions:    2

 k-point     1 :    0.25000000 0.25000000 0.00000000     weight = 1.00000000

band     1 # energy  -24.93342659 # occ.  2.00000000
 
ion      s      p      d    tot
    1  0.245  0.121  0.000  0.365
    2  0.524  0.110  0.000  0.634
tot    0.769  0.231  0.000  1.000
 
band     2 # energy  -10.76661355 # occ.  2.00000000
 
ion      s      p      d    tot
    1  0.323  0.023  0.000  0.345
    2  0.265  0.171  0.000  0.436
tot    0.588  0.193  0.000  0.781
 
band     3 # energy   -7.51824871 # occ.  2.00000000
 
ion      s      p      d    tot
    1  0.013  0.324  0.000  0.337
    2  0.000  0.394  0.000  0.394
tot    0.013  0.718  0.000  0.731
 
band     4 # energy   -6.06882848 # occ.  2.00000000
 
ion      s      p      d    tot
    1  0.000  0.248  0.000  0.248
    2  0.000  0.458  0.000  0.458
tot    0.000  0.706  0.000  0.707
 
band     5 # energy   -4.54629263 # occ.  2.00000000
 
ion      s      p      d    tot
    1  0.087  0.231  0.000  0.318
    2  0.025  0.426  0.000  0.452
tot    0.112  0.658  0.000  0.770
 
band     6 # energy    2.17155680 # occ.  0.99999999
 
ion      s      p      d    tot
    1  0.002  0.403  0.000  0.404
    2  0.000  0.304  0.000  0.304
tot    0.002  0.707  0.000  0.709
 
band     7 # energy    2.57596761 # occ.  0.00000001
 
ion      s      p      d    tot
    1  0.035  0.464  0.000  0.499
    2  0.009  0.274  0.000  0.283
tot    0.044  0.738  0.000  0.783
 
band     8 # energy   11.05845604 # occ.  0.00000000
 
ion      s      p      d    tot
    1  0.023  0.080  0.000  0.103
    2  0.019  0.049  0.000  0.068
tot    0.043  0.129  0.000  0.171
 
band     9 # energy   14.34832839 # occ.  0.00000000
 
ion      s      p      d    tot
    1  0.023  0.041  0.000  0.065
    2  0.016  0.189  0.000  0.204
tot    0.039  0.230  0.000  0.269
 
band    10 # energy   16.10860763 # occ.  0.00000000
 
ion      s      p      d    tot
    1  0.041  0.335  0.000  0.377
    2  0.047  0.124  0.000  0.172
tot    0.089  0.460  0.000  0.549
 
band    11 # energy   19.21749370 # occ.  0.00000000
 
ion      s      p      d    tot
    1  0.004  0.018  0.000  0.022
    2  0.025  0.033  0.000  0.058
tot    0.029  0.050  0.000  0.079
 
band    12 # energy   20.15566191 # occ.  0.00000000
 
ion      s      p      d    tot
    1  0.029  0.071  0.000  0.100
    2  0.006  0.043  0.000  0.049
tot    0.035  0.114  0.000  0.149
 
