unknown system                          
           1
     2.000000    0.000000    0.000000
     0.000000    3.000000    0.000000
     0.000000    0.000000    4.000000
   N    O 
   1   1
Direct configuration=     1
   0.50000000  0.50000000  0.55965226
   0.50000000  0.50000000  0.26272429
