<preamble>

<basis_specs>
===============================================================================
Bi                   Z=  83    Mass=  208.98        Charge= 0.17977+309
Lmxo=2 Lmxkb= 2    BasisType=split      Semic=T
L=0  Nsemic=0  Cnfigmx=6
          i=1  nzeta=2  polorb=0  (6s)
            splnorm:   0.15000    
               vcte:    40.000    
               rinn:    4.7951    
               qcoe:    0.0000    
               qyuk:    0.0000    
               qwid:   0.10000E-01
                rcs:    5.3279      3.7628    
            lambdas:    1.0000      1.0000    
L=1  Nsemic=0  Cnfigmx=6
          i=1  nzeta=2  polorb=0  (6p)
            splnorm:   0.15000    
               vcte:    40.000    
               rinn:    6.5804    
               qcoe:    0.0000    
               qyuk:    0.0000    
               qwid:   0.10000E-01
                rcs:    7.3116      5.2854    
            lambdas:    1.0000      1.0000    
L=2  Nsemic=0  Cnfigmx=5
          i=1  nzeta=1  polorb=0  (5d)  (semicore shell)
            splnorm:   0.15000    
               vcte:    40.000    
               rinn:    3.2177    
               qcoe:    0.0000    
               qyuk:    0.0000    
               qwid:   0.10000E-01
                rcs:    3.5753    
            lambdas:    1.0000    
-------------------------------------------------------------------------------
L=0  Nkbl=1  erefs: 0.17977+309
L=1  Nkbl=1  erefs: 0.17977+309
L=2  Nkbl=1  erefs: 0.17977+309
===============================================================================
</basis_specs>

<pseudopotential_header>
 Bi pb rel pcec
 ONCVPSP-3.2018-04-23Hamann's oncvpsp                        
 6s 2.00r r= 2.43/6p 3.00r r= 2.52/5d10.00r r= 2.10/                    5d:6s:6p:
</pseudopotential_header>
</preamble>
Bi                            # Symbol
Bi                            # Label
   83                         # Atomic number
     15.0000000000                             # Valence charge
     208.980000000        # Mass 
     179.502760553        # Self energy 
   2   5                      # Lmax for basis, no. of nl orbitals 
   2  10 T                    # Lmax for projectors, no. of nl KB projectors, LJ projs?
# PAOs:__________________________
  0  6  1  0  2.000000   #orbital l, n, z, is_polarized, population
 500    0.1067712753157437E-01     5.327886638255613     # npts, delta, cutoff
     0.000000000000000        0.7084106771544024E-01
    0.1067712753157437E-01    0.7089586767449700E-01
    0.2135425506314875E-01    0.7106552413518934E-01
    0.3203138259472312E-01    0.7134812395618850E-01
    0.4270851012629750E-01    0.7174342394282686E-01
    0.5338563765787187E-01    0.7225108470969718E-01
    0.6406276518944624E-01    0.7287067099169933E-01
    0.7473989272102062E-01    0.7360165235715270E-01
    0.8541702025259500E-01    0.7444340411354758E-01
    0.9609414778416937E-01    0.7539520838038166E-01
    0.1067712753157437        0.7645625532152327E-01
    0.1174484028473181        0.7762564453246866E-01
    0.1281255303788925        0.7890238657828387E-01
    0.1388026579104669        0.8028540467787768E-01
    0.1494797854420412        0.8177353652995777E-01
    0.1601569129736156        0.8336553627568319E-01
    0.1708340405051900        0.8506007659268970E-01
    0.1815111680367644        0.8685575091482919E-01
    0.1921882955683387        0.8875107577164792E-01
    0.2028654230999131        0.9074449324132806E-01
    0.2135425506314875        0.9283437351053227E-01
    0.2242196781630619        0.9501901753433446E-01
    0.2348968056946363        0.9729665978917361E-01
    0.2455739332262106        0.9966547111155299E-01
    0.2562510607577850        0.1021235616150089    
    0.2669281882893594        0.1046689836777013    
    0.2776053158209337        0.1072997349928307    
    0.2882824433525081        0.1100137616739587    
    0.2989595708840825        0.1128089614072138    
    0.3096366984156569        0.1156831866422862    
    0.3203138259472312        0.1186342478140670    
    0.3309909534788056        0.1216599165867660    
    0.3416680810103800        0.1247579291123384    
    0.3523452085419543        0.1279259892950844    
    0.3630223360735287        0.1311617720543327    
    0.3736994636051031        0.1344629265772002    
    0.3843765911366775        0.1378270795535200    
    0.3950537186682518        0.1412518383851578    
    0.4057308461998262        0.1447347943620876    
    0.4164079737314006        0.1482735257977722    
    0.4270851012629750        0.1518656011165875    
    0.4377622287945493        0.1555085818862540    
    0.4484393563261238        0.1592000257884734    
    0.4591164838576981        0.1629374895212330    
    0.4697936113892725        0.1667185316265167    
    0.4804707389208469        0.1705407152374629    
    0.4911478664524213        0.1744016107393230    
    0.5018249939839956        0.1782987983389066    
    0.5125021215155700        0.1822298705375465    
    0.5231792490471443        0.1861924345029769    
    0.5338563765787188        0.1901841143358920    
    0.5445335041102931        0.1942025532273362    
    0.5552106316418675        0.1982454155034692    
    0.5658877591734418        0.2023103885546595    
    0.5765648867050163        0.2063951846462575    
    0.5872420142365906        0.2104975426088264    
    0.5979191417681650        0.2146152294060252    
    0.6085962692997393        0.2187460415787550    
    0.6192733968313138        0.2228878065646135    
    0.6299505243628881        0.2270383838921212    
    0.6406276518944625        0.2311956662496008    
    0.6513047794260368        0.2353575804290224    
    0.6619819069576113        0.2395220881455312    
    0.6726590344891856        0.2436871867337869    
    0.6833361620207600        0.2478509097226495    
    0.6940132895523343        0.2520113272901359    
    0.7046904170839087        0.2561665466009554    
    0.7153675446154831        0.2603147120293089    
    0.7260446721470575        0.2644540052699882    
    0.7367217996786318        0.2685826453411752    
    0.7473989272102062        0.2726988884826529    
    0.7580760547417806        0.2768010279534667    
    0.7687531822733550        0.2808873937333870    
    0.7794303098049293        0.2849563521327751    
    0.7901074373365037        0.2890063053157483    
    0.8007845648680781        0.2930356907417754    
    0.8114616923996525        0.2970429805310483    
    0.8221388199312268        0.3010266807591845    
    0.8328159474628012        0.3049853306870145    
    0.8434930749943756        0.3089175019313301    
    0.8541702025259500        0.3128217975826518    
    0.8648473300575243        0.3166968512761605    
    0.8755244575890987        0.3205413262220169    
    0.8862015851206730        0.3243539142014211    
    0.8968787126522475        0.3281333345347337    
    0.9075558401838218        0.3318783330280469    
    0.9182329677153962        0.3355876809046002    
    0.9289100952469705        0.3392601737273678    
    0.9395872227785450        0.3428946303191339    
    0.9502643503101194        0.3464898916862924    
    0.9609414778416937        0.3500448199524958    
    0.9716186053732681        0.3535582973081921    
    0.9822957329048425        0.3570292249819186    
    0.9929728604364169        0.3604565222390921    
     1.003649987967991        0.3638391254138412    
     1.014327115499566        0.3671759869791953    
     1.025004243031140        0.3704660746608611    
     1.035681370562714        0.3737083705992889    
     1.046358498094289        0.3769018705649353    
     1.057035625625863        0.3800455832308387    
     1.067712753157438        0.3831385295067216    
     1.078389880689012        0.3861797419384704    
     1.089067008220586        0.3891682641762818    
     1.099744135752161        0.3921031505147811    
     1.110421263283735        0.3949834655079312    
     1.121098390815309        0.3978082836610755    
     1.131775518346884        0.4005766892023578    
     1.142452645878458        0.4032877759352951    
     1.153129773410033        0.4059406471737692    
     1.163806900941607        0.4085344157605961    
     1.174484028473181        0.4110682041702635    
     1.185161156004756        0.4135411446961541    
     1.195838283536330        0.4159523797221468    
     1.206515411067904        0.4183010620781423    
     1.217192538599479        0.4205863554786389    
     1.227869666131053        0.4228074350432268    
     1.238546793662628        0.4249634878974485    
     1.249223921194202        0.4270537138519555    
     1.259901048725776        0.4290773261579089    
     1.270578176257350        0.4310335523359147    
     1.281255303788925        0.4329216350755486    
     1.291932431320499        0.4347408332022373    
     1.302609558852074        0.4364904227079799    
     1.313286686383648        0.4381696978420906    
     1.323963813915223        0.4397779722577292    
     1.334640941446797        0.4413145802098983    
     1.345318068978371        0.4427788778003420    
     1.355995196509945        0.4441702442644894    
     1.366672324041520        0.4454880832951888    
     1.377349451573094        0.4467318243982136    
     1.388026579104669        0.4479009242740762    
     1.398703706636243        0.4489948682203959    
     1.409380834167817        0.4500131715493919    
     1.420057961699392        0.4509553810144201    
     1.430735089230966        0.4518210762397294    
     1.441412216762540        0.4526098711477463    
     1.452089344294115        0.4533214153773270    
     1.462766471825689        0.4539553956873872    
     1.473443599357264        0.4545115373398132    
     1.484120726888838        0.4549896054552770    
     1.494797854420412        0.4553894063366081    
     1.505474981951987        0.4557107887531739    
     1.516152109483561        0.4559536451807796    
     1.526829237015136        0.4561179129915903    
     1.537506364546710        0.4562035755877848    
     1.548183492078284        0.4562106634743996    
     1.558860619609859        0.4561392552653697    
     1.569537747141433        0.4559894786181192    
     1.580214874673007        0.4557615110916947    
     1.590892002204582        0.4554555809236582    
     1.601569129736156        0.4550719677218386    
     1.612246257267731        0.4546110030660737    
     1.622923384799305        0.4540730710168005    
     1.633600512330879        0.4534586085263786    
     1.644277639862454        0.4527681057502568    
     1.654954767394028        0.4520021062547883    
     1.665631894925602        0.4511612071192592    
     1.676309022457177        0.4502460589296029    
     1.686986149988751        0.4492573656622365    
     1.697663277520326        0.4481958844558723    
     1.708340405051900        0.4470624252708789    
     1.719017532583474        0.4458578504342641    
     1.729694660115049        0.4445830740711199    
     1.740371787646623        0.4432390614180020    
     1.751048915178197        0.4418268497306214    
     1.761726042709772        0.4403474820112767    
     1.772403170241346        0.4388020716034841    
     1.783080297772921        0.4371917791015900    
     1.793757425304495        0.4355178111045903    
     1.804434552836069        0.4337814188644543    
     1.815111680367644        0.4319838968308365    
     1.825788807899218        0.4301265810925156    
     1.836465935430792        0.4282108477215205    
     1.847143062962367        0.4262381110202529    
     1.857820190493941        0.4242098216790101    
     1.868497318025516        0.4221274648438716    
     1.879174445557090        0.4199925581042341    
     1.889851573088664        0.4178066493990118    
     1.900528700620239        0.4155713148529661    
     1.911205828151813        0.4132881565410803    
     1.921882955683387        0.4109588001943143    
     1.932560083214962        0.4085848928443375    
     1.943237210746536        0.4061681004208470    
     1.953914338278111        0.4037101053005631    
     1.964591465809685        0.4012126038198688    
     1.975268593341259        0.3986773037531276    
     1.985945720872834        0.3961059217657958    
     1.996622848404408        0.3935001808480840    
     2.007299975935982        0.3908618077346412    
     2.017977103467557        0.3881925303200850    
     2.028654230999131        0.3854940750720645    
     2.039331358530705        0.3827681644571469    
     2.050008486062280        0.3800165143703754    
     2.060685613593854        0.3772408315989207    
     2.071362741125429        0.3744428113040447    
     2.082039868657003        0.3716241345341976    
     2.092716996188577        0.3687864657878638    
     2.103394123720152        0.3659314506364984    
     2.114071251251726        0.3630607133544940    
     2.124748378783301        0.3601758546540069    
     2.135425506314875        0.3572784494898964    
     2.146102633846450        0.3543700448639853    
     2.156779761378024        0.3514521577617591    
     2.167456888909598        0.3485262731904789    
     2.178134016441172        0.3455938423030398    
     2.188811143972747        0.3426562805353956    
     2.199488271504321        0.3397149659247566    
     2.210165399035895        0.3367712374915531    
     2.220842526567470        0.3338263937288151    
     2.231519654099044        0.3308816911991626    
     2.242196781630619        0.3279383432516380    
     2.252873909162193        0.3249975188472134    
     2.263551036693767        0.3220603414991564    
     2.274228164225342        0.3191278883350713    
     2.284905291756916        0.3162011892797523    
     2.295582419288491        0.3132812263609719    
     2.306259546820065        0.3103689331387663    
     2.316936674351639        0.3074651942595160    
     2.327613801883214        0.3045708451355367    
     2.338290929414788        0.3016866717499142    
     2.348968056946362        0.2988134105731345    
     2.359645184477937        0.2959517485233211    
     2.370322312009511        0.2931023233109845    
     2.380999439541085        0.2902657240855940    
     2.391676567072660        0.2874424919973314    
     2.402353694604234        0.2846331191802947    
     2.413030822135809        0.2818380483292868    
     2.423707949667383        0.2790576749863938    
     2.434385077198957        0.2762923537024624    
     2.445062204730532        0.2735424050072267    
     2.455739332262106        0.2708081226903318    
     2.466416459793681        0.2680897804162836    
     2.477093587325255        0.2653876372176550    
     2.487770714856829        0.2627019385134987    
     2.498447842388404        0.2600329154316876    
     2.509124969919978        0.2573807838634335    
     2.519802097451552        0.2547457452800536    
     2.530479224983127        0.2521279875138876    
     2.541156352514701        0.2495276853738749    
     2.551833480046275        0.2469450010463916    
     2.562510607577850        0.2443800845256119    
     2.573187735109424        0.2418330740415399    
     2.583864862640999        0.2393040964527896    
     2.594541990172573        0.2367932676569699    
     2.605219117704147        0.2343006929873584    
     2.615896245235722        0.2318264675953587    
     2.626573372767296        0.2293706768124669    
     2.637250500298871        0.2269333965094134    
     2.647927627830445        0.2245146934408439    
     2.658604755362019        0.2221146255847681    
     2.669281882893594        0.2197332424638168    
     2.679959010425168        0.2173705854604588    
     2.690636137956743        0.2150266881230822    
     2.701313265488317        0.2127015764615292    
     2.711990393019891        0.2103952692333139    
     2.722667520551465        0.2081077782226248    
     2.733344648083040        0.2058391085083895    
     2.744021775614614        0.2035892587248546    
     2.754698903146189        0.2013582213150737    
     2.765376030677763        0.1991459827749175    
     2.776053158209337        0.1969525238898957    
     2.786730285740912        0.1947778199652839    
     2.797407413272486        0.1926218410480453    
     2.808084540804061        0.1904845521419437    
     2.818761668335635        0.1883659134162841    
     2.829438795867209        0.1862658804076123    
     2.840115923398784        0.1841844042149820    
     2.850793050930358        0.1821214316891793    
     2.861470178461933        0.1800769056158231    
     2.872147305993507        0.1780507648925212    
     2.882824433525081        0.1760429447003700    
     2.893501561056655        0.1740533766698448    
     2.904178688588230        0.1720819890414959    
     2.914855816119804        0.1701287068213382    
     2.925532943651379        0.1681934519308317    
     2.936210071182953        0.1662761433526090    
     2.946887198714527        0.1643766972711587    
     2.957564326246102        0.1624950272083427    
     2.968241453777676        0.1606310441552775    
     2.978918581309251        0.1587846566995911    
     2.989595708840825        0.1569557711480290    
     3.000272836372399        0.1551442916452770    
     3.010949963903974        0.1533501202891394    
     3.021627091435548        0.1515731572414764    
     3.032304218967123        0.1498133008348984    
     3.042981346498697        0.1480704476770302    
     3.053658474030271        0.1463444927506216    
     3.064335601561845        0.1446353295096073    
     3.075012729093420        0.1429428499729480    
     3.085689856624994        0.1412669448148607    
     3.096366984156568        0.1396075034516912    
     3.107044111688143        0.1379644141256787    
     3.117721239219717        0.1363375639864790    
     3.128398366751292        0.1347268391694075    
     3.139075494282866        0.1331321248704325    
     3.149752621814441        0.1315533054194264    
     3.160429749346015        0.1299902643503737    
     3.171106876877589        0.1284428844689766    
     3.181784004409164        0.1269110479178184    
     3.192461131940738        0.1253946362395103    
     3.203138259472313        0.1238935304372902    
     3.213815387003887        0.1224076110332746    
     3.224492514535461        0.1209367581248505    
     3.235169642067036        0.1194808514388426    
     3.245846769598610        0.1180397703836627    
     3.256523897130184        0.1166133940995141    
     3.267201024661758        0.1152016015066905    
     3.277878152193333        0.1138042713520048    
     3.288555279724907        0.1124212822535919    
     3.299232407256482        0.1110525127438175    
     3.309909534788056        0.1096978413105194    
     3.320586662319630        0.1083571464366244    
     3.331263789851205        0.1070303066385628    
     3.341940917382779        0.1057172005025625    
     3.352618044914354        0.1044177067197912    
     3.363295172445928        0.1031317041200500    
     3.373972299977503        0.1018590717043802    
     3.384649427509077        0.1005996886756694    
     3.395326555040651        0.9935343446837490E-01
     3.406003682572226        0.9812018877711977E-01
     3.416680810103800        0.9689983158397718E-01
     3.427357937635374        0.9569224318427361E-01
     3.438035065166948        0.9449730421147197E-01
     3.448712192698523        0.9331489566131500E-01
     3.459389320230097        0.9214489891439061E-01
     3.470066447761672        0.9098719575776873E-01
     3.480743575293246        0.8984166840565651E-01
     3.491420702824820        0.8870819951953944E-01
     3.502097830356395        0.8758667222671251E-01
     3.512774957887969        0.8647697013822064E-01
     3.523452085419544        0.8537897736584937E-01
     3.534129212951118        0.8429257853866169E-01
     3.544806340482692        0.8321765881811334E-01
     3.555483468014267        0.8215410391270719E-01
     3.566160595545841        0.8110180009180079E-01
     3.576837723077416        0.8006063419893458E-01
     3.587514850608990        0.7903049366403674E-01
     3.598191978140564        0.7801126651517659E-01
     3.608869105672138        0.7700284138959598E-01
     3.619546233203713        0.7600510754421952E-01
     3.630223360735287        0.7501795486535259E-01
     3.640900488266862        0.7404127387789168E-01
     3.651577615798436        0.7307495575394092E-01
     3.662254743330010        0.7211889232086455E-01
     3.672931870861585        0.7117297606880803E-01
     3.683608998393159        0.7023710015769384E-01
     3.694286125924734        0.6931115842374075E-01
     3.704963253456308        0.6839504538539254E-01
     3.715640380987882        0.6748865624892751E-01
     3.726317508519457        0.6659188691354651E-01
     3.736994636051031        0.6570463397606169E-01
     3.747671763582606        0.6482679473502743E-01
     3.758348891114180        0.6395826719463875E-01
     3.769026018645754        0.6309895006819839E-01
     3.779703146177328        0.6224874278119812E-01
     3.790380273708903        0.6140754547396213E-01
     3.801057401240477        0.6057525900399058E-01
     3.811734528772052        0.5975178494806669E-01
     3.822411656303626        0.5893702560393432E-01
     3.833088783835200        0.5813088399169486E-01
     3.843765911366775        0.5733326385478042E-01
     3.854443038898349        0.5654406966089865E-01
     3.865120166429924        0.5576320660251175E-01
     3.875797293961498        0.5499058059712888E-01
     3.886474421493072        0.5422609828717599E-01
     3.897151549024647        0.5346966703988015E-01
     3.907828676556221        0.5272119494676090E-01
     3.918505804087796        0.5198059082308555E-01
     3.929182931619370        0.5124776420649390E-01
     3.939860059150944        0.5052262535605090E-01
     3.950537186682519        0.4980508525114871E-01
     3.961214314214093        0.4909505558998492E-01
     3.971891441745667        0.4839244878811175E-01
     3.982568569277242        0.4769717797492493E-01
     3.993245696808816        0.4700915699339578E-01
     4.003922824340391        0.4632830039714408E-01
     4.014599951871965        0.4565452344289691E-01
     4.025277079403539        0.4498774210259181E-01
     4.035954206935114        0.4432787304954468E-01
     4.046631334466688        0.4367483365533686E-01
     4.057308461998263        0.4302854199149708E-01
     4.067985589529837        0.4238891682732138E-01
     4.078662717061411        0.4175587760407142E-01
     4.089339844592986        0.4112934446253825E-01
     4.100016972124560        0.4050923822901284E-01
     4.110694099656135        0.3989548040480059E-01
     4.121371227187709        0.3928799317779703E-01
     4.132048354719283        0.3868669941283397E-01
     4.142725482250857        0.3809152263904386E-01
     4.153402609782431        0.3750238704894576E-01
     4.164079737314006        0.3691921749606968E-01
     4.174756864845580        0.3634193949262848E-01
     4.185433992377154        0.3577047920496673E-01
     4.196111119908729        0.3520476344926626E-01
     4.206788247440303        0.3464471968725918E-01
     4.217465374971878        0.3409027602160968E-01
     4.228142502503452        0.3354136119139488E-01
     4.238819630035027        0.3299790456787580E-01
     4.249496757566601        0.3245983615001466E-01
     4.260173885098175        0.3192708655992720E-01
     4.270851012629750        0.3139958703829209E-01
     4.281528140161324        0.3087726943972621E-01
     4.292205267692899        0.3036006622812469E-01
     4.302882395224473        0.2984791047196840E-01
     4.313559522756047        0.2934073583960230E-01
     4.324236650287622        0.2883847659448921E-01
     4.334913777819196        0.2834106759041054E-01
     4.345590905350771        0.2784844426664052E-01
     4.356268032882345        0.2736054264309996E-01
     4.366945160413919        0.2687729931548663E-01
     4.377622287945494        0.2639865145038019E-01
     4.388299415477068        0.2592453678033463E-01
     4.398976543008643        0.2545489359894934E-01
     4.409653670540217        0.2498966075592483E-01
     4.420330798071791        0.2452877765210519E-01
     4.431007925603366        0.2407218423450525E-01
     4.441685053134940        0.2361982099133216E-01
     4.452362180666515        0.2317162894699415E-01
     4.463039308198089        0.2272754965710307E-01
     4.473716435729663        0.2228752520347082E-01
     4.484393563261238        0.2185149818909780E-01
     4.495070690792812        0.2141941173316373E-01
     4.505747818324386        0.2099120946601274E-01
     4.516424945855960        0.2056683552413775E-01
     4.527102073387534        0.2014623454516616E-01
     4.537779200919109        0.1972935166284325E-01
     4.548456328450683        0.1931613250202438E-01
     4.559133455982258        0.1890652317366592E-01
     4.569810583513832        0.1850047026982252E-01
     4.580487711045406        0.1809792085864989E-01
     4.591164838576981        0.1769882247940981E-01
     4.601841966108555        0.1730312313749001E-01
     4.612519093640130        0.1691077129942660E-01
     4.623196221171704        0.1652171588793720E-01
     4.633873348703278        0.1613590627696404E-01
     4.644550476234853        0.1575329228672295E-01
     4.655227603766427        0.1537382417877136E-01
     4.665904731298002        0.1499745265108172E-01
     4.676581858829576        0.1462412883313088E-01
     4.687258986361150        0.1425380428100043E-01
     4.697936113892725        0.1388643097248876E-01
     4.708613241424299        0.1352196130224171E-01
     4.719290368955874        0.1316034807689526E-01
     4.729967496487448        0.1280154451023377E-01
     4.740644624019023        0.1244550421836352E-01
     4.751321751550597        0.1209218121490163E-01
     4.761998879082171        0.1174152990618114E-01
     4.772676006613746        0.1139350508647588E-01
     4.783353134145320        0.1104806193323970E-01
     4.794030261676895        0.1070515600236385E-01
     4.804707389208469        0.1036474322345265E-01
     4.815384516740043        0.1002677989511369E-01
     4.826061644271618        0.9691222680351616E-02
     4.836738771803192        0.9358028617137953E-02
     4.847415899334766        0.9027155509734108E-02
     4.858093026866340        0.8698564815348607E-02
     4.868770154397914        0.8372230587846885E-02
     4.879447281929489        0.8048154801998324E-02
     4.890124409461063        0.7726384684841905E-02
     4.900801536992638        0.7407026854300500E-02
     4.911478664524212        0.7090255302475547E-02
     4.922155792055786        0.6776312762621963E-02
     4.932832919587361        0.6465506512173054E-02
     4.943510047118935        0.6158200211825695E-02
     4.954187174650510        0.5854803349745064E-02
     4.964864302182084        0.5555759579987217E-02
     4.975541429713658        0.5261534907879106E-02
     4.986218557245233        0.4972606370934126E-02
     4.996895684776807        0.4689451621255810E-02
     5.007572812308382        0.4412539635546020E-02
     5.018249939839956        0.4142322652294735E-02
     5.028927067371530        0.3879229350521923E-02
     5.039604194903105        0.3623659229632684E-02
     5.050281322434679        0.3375978116699462E-02
     5.060958449966254        0.3136514709100408E-02
     5.071635577497828        0.2905558052033859E-02
     5.082312705029402        0.2683355848554307E-02
     5.092989832560977        0.2470113502004639E-02
     5.103666960092551        0.2265993795405346E-02
     5.114344087624126        0.2071117118379063E-02
     5.125021215155700        0.1885562158768186E-02
     5.135698342687274        0.1709366982717644E-02
     5.146375470218849        0.1542530433280745E-02
     5.157052597750423        0.1385013783242621E-02
     5.167729725281998        0.1236742582565198E-02
     5.178406852813572        0.1097608644272280E-02
     5.189083980345146        0.9674721141642520E-03
     5.199761107876721        0.8461635685889983E-03
     5.210438235408295        0.7334860789807754E-03
     5.221115362939869        0.6292171690041633E-03
     5.231792490471443        0.5331105640206911E-03
     5.242469618003018        0.4448975810825907E-03
     5.253146745534592        0.3642879040939467E-03
     5.263823873066166        0.2909692700689380E-03
     5.274501000597741        0.2246050943686651E-03
     5.285178128129315        0.1648278027859071E-03
     5.295855255660890        0.1112219435925430E-03
     5.306532383192464        0.6327825272803917E-04
     5.317209510724038        0.2022402243917596E-04
     5.327886638255613         0.000000000000000    
  0  6  2  0  0.000000   #orbital l, n, z, is_polarized, population
 500    0.7540774985079984E-02     3.762846717554912     # npts, delta, cutoff
     0.000000000000000       -0.2987715755475576    
    0.7540774985079984E-02   -0.2987155530930653    
    0.1508154997015997E-01   -0.2985365314775894    
    0.2262232495523995E-01   -0.2982382423906248    
    0.3016309994031994E-01   -0.2978208122376108    
    0.3770387492539992E-01   -0.2972844163755431    
    0.4524464991047990E-01   -0.2966292797720644    
    0.5278542489555989E-01   -0.2958556769269142    
    0.6032619988063987E-01   -0.2949639316638942    
    0.6786697486571985E-01   -0.2939544168612187    
    0.7540774985079984E-01   -0.2928275541341431    
    0.8294852483587982E-01   -0.2915838134739940    
    0.9048929982095981E-01   -0.2902237128453243    
    0.9803007480603979E-01   -0.2887478177422202    
    0.1055708497911198       -0.2871567407045670    
    0.1131116247761998       -0.2854511407950284    
    0.1206523997612797       -0.2836317230375017    