<preamble>

<basis_specs>
===============================================================================
Se                   Z=  34    Mass=  78.971        Charge= 0.17977+309
Lmxo=2 Lmxkb= 2    BasisType=split      Semic=T
L=0  Nsemic=0  Cnfigmx=4
          i=1  nzeta=2  polorb=0  (4s)
            splnorm:   0.15000    
               vcte:    40.000    
               rinn:    4.2433    
               qcoe:    0.0000    
               qyuk:    0.0000    
               qwid:   0.10000E-01
                rcs:    4.7148      3.2373    
            lambdas:    1.0000      1.0000    
L=1  Nsemic=0  Cnfigmx=4
          i=1  nzeta=2  polorb=0  (4p)
            splnorm:   0.15000    
               vcte:    40.000    
               rinn:    5.4620    
               qcoe:    0.0000    
               qyuk:    0.0000    
               qwid:   0.10000E-01
                rcs:    6.0689      4.2311    
            lambdas:    1.0000      1.0000    
L=2  Nsemic=0  Cnfigmx=3
          i=1  nzeta=1  polorb=0  (3d)  (semicore shell)
            splnorm:   0.15000    
               vcte:    40.000    
               rinn:    2.1932    
               qcoe:    0.0000    
               qyuk:    0.0000    
               qwid:   0.10000E-01
                rcs:    2.4369    
            lambdas:    1.0000    
-------------------------------------------------------------------------------
L=0  Nkbl=1  erefs: 0.17977+309
L=1  Nkbl=1  erefs: 0.17977+309
L=2  Nkbl=1  erefs: 0.17977+309
===============================================================================
</basis_specs>

<pseudopotential_header>
 Se pb rel pcec
 ONCVPSP-3.2018-04-18Hamann's oncvpsp                        
 4s 2.00r r= 1.82/4p 4.00r r= 1.50/3d10.00r r= 1.91/                    3d:4s:4p:
</pseudopotential_header>
</preamble>
Se                            # Symbol
Se                            # Label
   34                         # Atomic number
     16.0000000000                             # Valence charge
     78.9710000000        # Mass 
     255.014562591        # Self energy 
   2   5                      # Lmax for basis, no. of nl orbitals 
   2  10 T                    # Lmax for projectors, no. of nl KB projectors, LJ projs?
# PAOs:__________________________
  0  4  1  0  2.000000   #orbital l, n, z, is_polarized, population
 500    0.9448540378965791E-02     4.714821649103929     # npts, delta, cutoff
     0.000000000000000        0.5771838761553340E-01
    0.9448540378965791E-02    0.5781480389039633E-01
    0.1889708075793158E-01    0.5810860117709119E-01
    0.2834562113689737E-01    0.5859805855008844E-01
    0.3779416151586316E-01    0.5928286667082456E-01
    0.4724270189482896E-01    0.6016259265049421E-01
    0.5669124227379475E-01    0.6123667948146885E-01
    0.6613978265276053E-01    0.6250444562579220E-01
    0.7558832303172633E-01    0.6396508456390750E-01
    0.8503686341069212E-01    0.6561766428918160E-01
    0.9448540378965792E-01    0.6746112675321540E-01
    0.1039339441686237        0.6949428727146792E-01
    0.1133824845475895        0.7171583390070092E-01
    0.1228310249265553        0.7412432680107003E-01
    0.1322795653055211        0.7671819759673877E-01
    0.1417281056844869        0.7949574874977618E-01
    0.1511766460634527        0.8245515296285268E-01
    0.1606251864424184        0.8559445262686664E-01
    0.1700737268213842        0.8891155933012025E-01
    0.1795222672003500        0.9240425344602127E-01
    0.1889708075793158        0.9607018381650573E-01
    0.1984193479582816        0.9990686754845396E-01
    0.2078678883372474        0.1039116899403183    
    0.2173164287162132        0.1080819045559770    
    0.2267649690951790        0.1124146334624945    
    0.2362135094741448        0.1169068676479919    
    0.2456620498531106        0.1215554676352208    
    0.2551105902320764        0.1263571643056916    
    0.2645591306110421        0.1313085599483368    
    0.2740076709900079        0.1364061295457052    
    0.2834562113689738        0.1416462223095709    
    0.2929047517479395        0.1470250634766399    
    0.3023532921269053        0.1525387563737158    
    0.3118018325058711        0.1581832847602933    
    0.3212503728848369        0.1639545154550660    
    0.3306989132638027        0.1698482012512773    
    0.3401474536427685        0.1758599841242457    
    0.3495959940217342        0.1819853987327171    
    0.3590445344007001        0.1882198762140215    
    0.3684930747796659        0.1945587482712739    
    0.3779416151586317        0.2009972515491327    
    0.3873901555375974        0.2075305322928920    
    0.3968386959165632        0.2141536512839546    
    0.4062872362955290        0.2208615890430436    
    0.4157357766744948        0.2276492512908279    
    0.4251843170534606        0.2345114746540305    
    0.4346328574324264        0.2414430326035251    
    0.4440813978113922        0.2484386416094218    
    0.4535299381903580        0.2554929674967509    
    0.4629784785693238        0.2626006319840110    
    0.4724270189482895        0.2697562193856325    
    0.4818755593272553        0.2769542834582925    
    0.4913240997062212        0.2841893543700016    
    0.5007726400851870        0.2914559457700191    
    0.5102211804641528        0.2987485619368890    
    0.5196697208431185        0.3060617049812727    
    0.5291182612220843        0.3133898820797800    
    0.5385668016010501        0.3207276127156523    
    0.5480153419800159        0.3280694359019601    
    0.5574638823589817        0.3354099173629256    
    0.5669124227379475        0.3427436566490804    
    0.5763609631169132        0.3500652941621941    
    0.5858095034958790        0.3573695180663225    
    0.5952580438748448        0.3646510710618058    
    0.6047065842538106        0.3719047569997539    
    0.6141551246327764        0.3791254473153158    
    0.6236036650117422        0.3863080872589783    
    0.6330522053907081        0.3934477019061552    
    0.6425007457696738        0.4005394019265227    
    0.6519492861486396        0.4075783890957835    
    0.6613978265276054        0.4145599615339304    
    0.6708463669065712        0.4214795186555145    
    0.6802949072855370        0.4283325658189799    
    0.6897434476645028        0.4351147186636856    
    0.6991919880434685        0.4418217071249180    
    0.7086405284224343        0.4484493791189145    
    0.7180890688014001        0.4549937038916056    
    0.7275376091803659        0.4614507750266095    
    0.7369861495593317        0.4678168131097324    
    0.7464346899382975        0.4740881680490355    
    0.7558832303172633        0.4802613210512818    
    0.7653317706962290        0.4863328862573021    
    0.7747803110751948        0.4922996120405366    
    0.7842288514541607        0.4981583819746909    
    0.7936773918331265        0.5039062154779640    
    0.8031259322120923        0.5095402681429486    
    0.8125744725910581        0.5150578317626768    
    0.8220230129700238        0.5204563340646721    
    0.8314715533489896        0.5257333381661894    
    0.8409200937279554        0.5308865417649206    
    0.8503686341069212        0.5359137760805655    
    0.8598171744858870        0.5408130045635815    
    0.8692657148648528        0.5455823213882516    
    0.8787142552438185        0.5502199497479204    
    0.8881627956227843        0.5547242399707875    
    0.8976113360017501        0.5590936674750797    
    0.9070598763807159        0.5633268305827729    
    0.9165084167596818        0.5674224482111064    
    0.9259569571386476        0.5713793574612115    
    0.9354054975176134        0.5751965111230707    
    0.9448540378965791        0.5788729751157549    
    0.9543025782755449        0.5824079258814987    
    0.9637511186545107        0.5858006477517512    
    0.9731996590334765        0.5890505303025891    
    0.9826481994124423        0.5921570657163044    
    0.9920967397914081        0.5951198461649899    
     1.001545280170374        0.5979385612310989    
     1.010993820549340        0.6006129953788701    
     1.020442360928306        0.6031430254893465    
     1.029890901307271        0.6055286184707070    
     1.039339441686237        0.6077698289540885    
     1.048787982065203        0.6098667970839292    
     1.058236522444169        0.6118197464105574    
     1.067685062823134        0.6136289818911512    
     1.077133603202100        0.6152948880038631    
     1.086582143581066        0.6168179269785276    
     1.096030683960032        0.6181986371459768    
     1.105479224338997        0.6194376314062047    
     1.114927764717963        0.6205355958146482    
     1.124376305096929        0.6214932882842298    
     1.133824845475895        0.6223115373995802    
     1.143273385854861        0.6229912413382006    
     1.152721926233826        0.6235333668926838    
     1.162170466612792        0.6239389485867700    
     1.171619006991758        0.6242090878761691    
     1.181067547370724        0.6243449524251939    
     1.190516087749690        0.6243477754489944    
     1.199964628128656        0.6242188551096362    
     1.209413168507621        0.6239595539544029    
     1.218861708886587        0.6235712983842659    
     1.228310249265553        0.6230555781387709    
     1.237758789644519        0.6224139457843272    
     1.247207330023484        0.6216480161930350    
     1.256655870402450        0.6207594659969395    
     1.266104410781416        0.6197500330050303    
     1.275552951160382        0.6186215155698110    
     1.285001491539348        0.6173757718883709    
     1.294450031918313        0.6160147192271545    
     1.303898572297279        0.6145403330564657    
     1.313347112676245        0.6129546460833301    
     1.322795653055211        0.6112597471718396    
     1.332244193434176        0.6094577801398833    
     1.341692733813142        0.6075509424236818    
     1.351141274192108        0.6055414836005837    
     1.360589814571074        0.6034317134489189    
     1.370038354950040        0.6012240070075004    
     1.379486895329006        0.5989207235998896    
     1.388935435707971        0.5965243033120655    
     1.398383976086937        0.5940372288840214    
     1.407832516465903        0.5914620230395158    
     1.417281056844869        0.5888012458795743    
     1.426729597223835        0.5860574921141576    
     1.436178137602800        0.5832333881261502    
     1.445626677981766        0.5803315888808315    
     1.455075218360732        0.5773547746865791    
     1.464523758739698        0.5743056477919618    
     1.473972299118663        0.5711869288766988    
     1.483420839497629        0.5680013533805989    
     1.492869379876595        0.5647516676687778    
     1.502317920255561        0.5614406253519222    
     1.511766460634527        0.5580709830911017    
     1.521215001013492        0.5546454967778671    
     1.530663541392458        0.5511669174892808    
     1.540112081771424        0.5476379867566302    
     1.549560622150390        0.5440614329684936    
     1.559009162529356        0.5404399669618907    
     1.568457702908321        0.5367762777330898    
     1.577906243287287        0.5330730286472870    
     1.587354783666253        0.5293328529961370    
     1.596803324045219        0.5255583498742371    
     1.606251864424185        0.5217520803576287    
     1.615700404803150        0.5179165635773614    
     1.625148945182116        0.5140542728927774    
     1.634597485561082        0.5101676322500659    
     1.644046025940048        0.5062590126866080    
     1.653494566319013        0.5023307289844319    
     1.662943106697979        0.4983850365105795    
     1.672391647076945        0.4944241282519043    
     1.681840187455911        0.4904501320591911    
     1.691288727834877        0.4864651081155175    
     1.700737268213842        0.4824710466367277    
     1.710185808592808        0.4784698658213112    
     1.719634348971774        0.4744634100520100    
     1.729082889350740        0.4704534483647654    
     1.738531429729706        0.4664416731862748    
     1.747979970108671        0.4624296993494988    
     1.757428510487637        0.4584190633891587    
     1.766877050866603        0.4544112230534200    
     1.776325591245569        0.4504075572094337    
     1.785774131624535        0.4464093664426444    
     1.795222672003500        0.4424178735568832    
     1.804671212382466        0.4384342223139668    
     1.814119752761432        0.4344594776820243    
     1.823568293140398        0.4304946319863012    
     1.833016833519364        0.4265406149394082    
     1.842465373898329        0.4225983045684210    
     1.851913914277295        0.4186685375333915    
     1.861362454656261        0.4147521162938165    
     1.870810995035227        0.4108498099407561    
     1.880259535414192        0.4069623530275147    
     1.889708075793158        0.4030904461981812    
     1.899156616172124        0.3992347578044947    
     1.908605156551090        0.3953959251400636    
     1.918053696930056        0.3915745551898578    
     1.927502237309021        0.3877712257321906    
     1.936950777687987        0.3839864862582449    
     1.946399318066953        0.3802208586458953    
     1.955847858445919        0.3764748381186378    
     1.965296398824885        0.3727488942139709    
     1.974744939203850        0.3690434716005578    
     1.984193479582816        0.3653589907255284    
     1.993642019961782        0.3616958487977762    
     2.003090560340748        0.3580544204828009    
     2.012539100719713        0.3544350586149121    
     2.021987641098679        0.3508380948526345    
     2.031436181477645        0.3472638404842271    
     2.040884721856611        0.3437125870852539    
     2.050333262235577        0.3401846071711141    
     2.059781802614542        0.3366801548358087    
     2.069230342993508        0.3331994663786986    
     2.078678883372474        0.3297427609178822    
     2.088127423751440        0.3263102409782889    
     2.097575964130406        0.3229020930650727    
     2.107024504509372        0.3195184882215096    
     2.116473044888337        0.3161595825698598    
     2.125921585267303        0.3128255178375181    
     2.135370125646269        0.3095164218676212    
     2.144818666025234        0.3062324091146030    
     2.154267206404200        0.3029735811257080    
     2.163715746783166        0.2997400270082641    
     2.173164287162132        0.2965318238832602    
     2.182612827541098        0.2933490373254011    
     2.192061367920064        0.2901917217906811    
     2.201509908299029        0.2870599210307124    
     2.210958448677995        0.2839536684946650    
     2.220406989056961        0.2808729877202618    
     2.229855529435927        0.2778178927115073    
     2.239304069814892        0.2747883883058418    
     2.248752610193858        0.2717844705309075    
     2.258201150572824        0.2688061269488039    
     2.267649690951790        0.2658533369912063    
     2.277098231330756        0.2629260722843001    
     2.286546771709721        0.2600242969624310    
     2.295995312088687        0.2571479679735367    
     2.305443852467653        0.2542970353746979    
     2.314892392846619        0.2514714426177312    
     2.324340933225585        0.2486711268271658    
     2.333789473604551        0.2458960190688274    
     2.343238013983516        0.2431460446096222    
     2.352686554362482        0.2404211231701268    
     2.362135094741448        0.2377211691684866    
     2.371583635120413        0.2350460919564518    
     2.381032175499379        0.2323957960485469    
     2.390480715878345        0.2297701813433799    
     2.399929256257311        0.2271691433378570    
     2.409377796636277        0.2245925733347280    
     2.418826337015243        0.2220403586432478    
     2.428274877394208        0.2195123827733243    
     2.437723417773174        0.2170085256232743    
     2.447171958152140        0.2145286636614975    
     2.456620498531106        0.2120726701022212    
     2.466069038910072        0.2096404150751389    
     2.475517579289037        0.2072317657896128    
     2.484966119668003        0.2048465866935797    
     2.494414660046969        0.2024847396266892    
     2.503863200425934        0.2001460839683747    
     2.513311740804900        0.1978304767813641    
     2.522760281183866        0.1955377729498166    
     2.532208821562832        0.1932678253125150    
     2.541657361941798        0.1910204847923226    
     2.551105902320764        0.1887956005206246    
     2.560554442699730        0.1865930199569588    
     2.570002983078695        0.1844125890055167    
     2.579451523457661        0.1822541521269472    
     2.588900063836627        0.1801175524456193    
     2.598348604215593        0.1780026318545761    
     2.607797144594558        0.1759092311183524    
     2.617245684973524        0.1738371899645230    
     2.626694225352490        0.1717863471781804    
     2.636142765731456        0.1697565406908288    
     2.645591306110421        0.1677476076676775    
     2.655039846489387        0.1657593846081851    
     2.664488386868353        0.1637917074012865    
     2.673936927247319        0.1618444114056380    
     2.683385467626285        0.1599173315365209    
     2.692834008005251        0.1580103023319182    
     2.702282548384216        0.1561231580611954    
     2.711731088763182        0.1542557327094417    
     2.721179629142148        0.1524078600577048    
     2.730628169521113        0.1505793737668577    
     2.740076709900079        0.1487701073407301    
     2.749525250279045        0.1469798946186669    
     2.758973790658011        0.1452085692711648    
     2.768422331036977        0.1434559650496195    
     2.777870871415943        0.1417219158694905    
     2.787319411794908        0.1400062558656340    
     2.796767952173874        0.1383088194299810    
     2.806216492552840        0.1366294412488511    
     2.815665032931806        0.1349679563372818    
     2.825113573310772        0.1333242000825309    
     2.834562113689737        0.1316980082836663    
     2.844010654068703        0.1300892171895821    
     2.853459194447669        0.1284976635344367    
     2.862907734826635        0.1269231845709068    
     2.872356275205600        0.1253656181023845    
     2.881804815584566        0.1238248025137168    
     2.891253355963532        0.1223005768005108    
     2.900701896342498        0.1207927805970581    
     2.910150436721464        0.1193012542029254    
     2.919598977100430        0.1178258386082642    
     2.929047517479395        0.1163663755178934    
     2.938496057858361        0.1149227073741698    
     2.947944598237327        0.1134946773786962    
     2.957393138616293        0.1120821295129177    
     2.966841678995258        0.1106849085576342    
     2.976290219374224        0.1093028601114691    
     2.985738759753190        0.1079358306083123    
     2.995187300132156        0.1065836673338137    
     3.004635840511122        0.1052462184409213    
     3.014084380890087        0.1039233329645129    
     3.023532921269053        0.1026148608351467    
     3.032981461648019        0.1013206528919739    
     3.042430002026985        0.1000405608948308    
     3.051878542405951        0.9877443753553981E-01
     3.061327082784916        0.9752213644844999E-01
     3.070775623163882        0.9628351222025198E-01
     3.080224163542848        0.9505842039908045E-01
     3.089672703921813        0.9384671750293093E-01
     3.099121244300779        0.9264826102742431E-01
     3.108569784679745        0.9146290945293753E-01
     3.118018325058711        0.9029052225112280E-01
     3.127466865437677        0.8913095989083335E-01
     3.136915405816643        0.8798408384348765E-01
     3.146363946195609        0.8684975658788743E-01
     3.155812486574574        0.8572784161450690E-01
     3.165261026953540        0.8461820342927268E-01
     3.174709567332506        0.8352070755686168E-01
     3.184158107711472        0.8243522054352598E-01
     3.193606648090437        0.8136160995946734E-01
     3.203055188469403        0.8029974440077250E-01
     3.212503728848369        0.7924949349093505E-01
     3.221952269227335        0.7821072788197293E-01
     3.231400809606300        0.7718331925515882E-01
     3.240849349985266        0.7616714032137770E-01
     3.250297890364232        0.7516206482112686E-01
     3.259746430743198        0.7416796752417434E-01
     3.269194971122164        0.7318472422888550E-01
     3.278643511501130        0.7221221176123165E-01
     3.288092051880095        0.7125030797349544E-01
     3.297540592259061        0.7029889174268450E-01
     3.306989132638027        0.6935784296866365E-01
     3.316437673016993        0.6842704257201840E-01
     3.325886213395958        0.6750637249165953E-01
     3.335334753774924        0.6659571568218174E-01
     3.344783294153890        0.6569495611098555E-01
     3.354231834532856        0.6480397875516955E-01
     3.363680374911822        0.6392266959820740E-01
     3.373128915290788        0.6305091562641718E-01
     3.382577455669753        0.6218860482522848E-01
     3.392025996048719        0.6133562617526239E-01
     3.401474536427685        0.6049186964822760E-01
     3.410923076806651        0.5965722620264293E-01
     3.420371617185616        0.5883158777939287E-01
     3.429820157564582        0.5801484729712601E-01
     3.439268697943548        0.5720689864750116E-01
     3.448717238322514        0.5640763669028960E-01
     3.458165778701479        0.5561695724833927E-01
     3.467614319080445        0.5483475710240911E-01
     3.477062859459411        0.5406093398587811E-01
     3.486511399838377        0.5329538657933703E-01
     3.495959940217343        0.5253801450506677E-01
     3.505408480596309        0.5178871832141010E-01
     3.514857020975274        0.5104739951704296E-01
     3.524305561354240        0.5031396050515048E-01
     3.533754101733206        0.4958830461751100E-01
     3.543202642112172        0.4887033609849520E-01
     3.552651182491137        0.4815996009898465E-01
     3.562099722870103        0.4745708267021405E-01
     3.571548263249069        0.4676161075754244E-01
     3.580996803628035        0.4607345219415637E-01
     3.590445344007001        0.4539251569470976E-01
     3.599893884385966        0.4471871084890570E-01
     3.609342424764932        0.4405194811502337E-01
     3.618790965143898        0.4339213881339234E-01
     3.628239505522864        0.4273919511981943E-01
     3.637688045901830        0.4209303005897236E-01
     3.647136586280795        0.4145355749772151E-01
     3.656585126659761        0.4082069213844530E-01
     3.666033667038727        0.4019434951229981E-01
     3.675482207417693        0.3957444597245813E-01
     3.684930747796658        0.3896089868732087E-01
     3.694379288175624        0.3835362563370155E-01
     3.703827828554590        0.3775254558998894E-01
     3.713276368933556        0.3715757812928895E-01
     3.722724909312522        0.3656864361254886E-01
     3.732173449691488        0.3598566318166758E-01
     3.741621990070453        0.3540855875259121E-01
     3.751070530449419        0.3483725300839943E-01
     3.760519070828385        0.3427166939238387E-01
     3.769967611207351        0.3371173210111833E-01
     3.779416151586316        0.3315736607752720E-01
     3.788864691965282        0.3260849700395041E-01
     3.798313232344248        0.3206505129520799E-01
     3.807761772723214        0.3152695609166657E-01
     3.817210313102180        0.3099413925230926E-01
     3.826658853481145        0.3046652934780961E-01
     3.836107393860111        0.2994405565361324E-01
     3.845555934239077        0.2942664814302694E-01
     3.855004474618043        0.2891423748031797E-01
     3.864453014997009        0.2840675501382394E-01
     3.873901555375974        0.2790413276907474E-01
     3.883350095754940        0.2740630344192963E-01
     3.892798636133906        0.2691320039172819E-01
     3.902247176512872        0.2642475763445807E-01
     3.911695716891837        0.2594090983594095E-01
     3.921144257270803        0.2546159230503419E-01
     3.930592797649769        0.2498674098685620E-01
     3.940041338028735        0.2451629245602974E-01
     3.949489878407701        0.2405018390994806E-01
     3.958938418786667        0.2358835316206398E-01
     3.968386959165632        0.2313073863519962E-01
     3.977835499544598        0.2267727935488529E-01
     3.987284039923564        0.2222791494271989E-01
     3.996732580302530        0.2178258560975896E-01
     4.006181120681496        0.2134123214993024E-01
     4.015629661060461        0.2090379593347268E-01
     4.025078201439427        0.2047021890040873E-01
     4.034526741818393        0.2004044355404277E-01
     4.043975282197358        0.1961441295448962E-01
     4.053423822576324        0.1919207071223281E-01
     4.062872362955290        0.1877336098171149E-01
     4.072320903334256        0.1835822845494233E-01
     4.081769443713222        0.1794661835516970E-01
     4.091217984092188        0.1753847643054981E-01
     4.100666524471153        0.1713374894786651E-01
     4.110115064850119        0.1673238268627765E-01
     4.119563605229085        0.1633432493109803E-01
     4.129012145608050        0.1593952346761530E-01
     4.138460685987017        0.1554792657493794E-01
     4.147909226365982        0.1515948301987936E-01
     4.157357766744948        0.1477414205087484E-01
     4.166806307123914        0.1439185339193248E-01
     4.176254847502880        0.1401256723662268E-01
     4.185703387881845        0.1363623424209940E-01
     4.195151928260811        0.1326280552315829E-01
     4.204600468639777        0.1289223264632993E-01
     4.214049009018743        0.1252446762400575E-01
     4.223497549397709        0.1215946290860630E-01
     4.232946089776674        0.1179717138678000E-01
     4.242394630155641        0.1143754637363998E-01
     4.251843170534606        0.1108054160703746E-01
     4.261291710913572        0.1072611124186664E-01
     4.270740251292538        0.1037420984448661E-01
     4.280188791671503        0.1002479240153770E-01
     4.289637332050469        0.9677814689912497E-02
     4.299085872429435        0.9333236015595603E-02
     4.308534412808401        0.8991027713581788E-02
     4.317982953187366        0.8651187742563373E-02
     4.327431493566332        0.8313757248328228E-02
     4.336880033945298        0.7978834165173804E-02
     4.346328574324264        0.7646581029207848E-02
     4.355777114703230        0.7317226543067100E-02
     4.365225655082195        0.6991061867863542E-02
     4.374674195461162        0.6668433141899482E-02
     4.384122735840127        0.6349731701187085E-02
     4.393571276219093        0.6035383215489668E-02
     4.403019816598059        0.5725836637917780E-02
     4.412468356977024        0.5421553580163237E-02
     4.421916897355990        0.5122998497265100E-02
     4.431365437734956        0.4830629896722296E-02
     4.440813978113922        0.4544892667880503E-02
     4.450262518492887        0.4266211547591580E-02
     4.459711058871854        0.3994985686818858E-02
     4.469159599250819        0.3731584251807052E-02
     4.478608139629785        0.3476342976327755E-02
     4.488056680008751        0.3229561573724733E-02
     4.497505220387716        0.2991501915773038E-02
     4.506953760766683        0.2762386887454513E-02
     4.516402301145648        0.2542399831070422E-02
     4.525850841524614        0.2331684498618515E-02
     4.535299381903580        0.2130345437325649E-02
     4.544747922282546        0.1938448739152034E-02
     4.554196462661511        0.1756023090618064E-02
     4.563645003040477        0.1583061064141464E-02
     4.573093543419443        0.1419520595900455E-02
     4.582542083798408        0.1265326597676275E-02
     4.591990624177375        0.1120372650554787E-02
     4.601439164556340        0.9845227257722275E-03
     4.610887704935306        0.8576128705594777E-03
     4.620336245314272        0.7394527811765095E-03
     4.629784785693237        0.6298271548156490E-03
     4.639233326072204        0.5284966530660675E-03
     4.648681866451169        0.4351981923391309E-03
     4.658130406830135        0.3496440306265542E-03
     4.667578947209101        0.2715185623671821E-03
     4.677027487588067        0.2004703279426700E-03
     4.686476027967032        0.1360926380984440E-03
     4.695924568345998        0.7787191961392977E-04
     4.705373108724964        0.2499907971065662E-04
     4.714821649103929         0.000000000000000    
  0  4  2  0  0.000000   #orbital l, n, z, is_polarized, population
 500    0.6487613754766757E-02     3.237319263628612     # npts, delta, cutoff
     0.000000000000000       -0.3679822308124799    
    0.6487613754766757E-02   -0.3678956281370411    
    0.1297522750953351E-01   -0.3676270461790804    
    0.1946284126430027E-01   -0.3671794939409370    
    0.2595045501906703E-01   -0.3665531036447486    
    0.3243806877383378E-01   -0.3657480591033891    
    0.3892568252860054E-01   -0.3647645965364743    
    0.4541329628336729E-01   -0.3636030047554770    
    0.5190091003813405E-01   -0.3622636252837445    
    0.5838852379290081E-01   -0.3607468524735640    
    0.6487613754766756E-01   -0.3590531336319406    
    0.7136375130243432E-01   -0.3571829691574562    
    0.7785136505720108E-01   -0.3551369126881623    
    0.8433897881196784E-01   -0.3529155712596403    
    0.9082659256673459E-01   -0.3505196054719783    
    0.9731420632150135E-01   -0.3479497296642122    
    0.1038018200762681       -0.3452067120946197    