   2   2   0   0
  0.1200000E+02  0.2000000E-09  0.3000000E-09  0.4000000E-09  0.5000000E-15
   1.0000000000000000E-004
  CAR 
 unknown system                          
     17.95442950    -25.75544973  301      1.43520126      1.00000000
    -25.755  0.0000E+00  0.0000E+00
    -25.610  0.0000E+00  0.0000E+00
    -25.464  0.0000E+00  0.0000E+00
    -25.318  0.0000E+00  0.0000E+00
    -25.173  0.0000E+00  0.0000E+00
    -25.027  0.0000E+00  0.0000E+00
    -24.881  0.0000E+00  0.0000E+00
    -24.736  0.0000E+00  0.0000E+00
    -24.590 -0.8011E-31 -0.1167E-31
    -24.444 -0.1956E-21 -0.2849E-22
    -24.298 -0.6293E-14 -0.9169E-15
    -24.153 -0.2691E-08 -0.3921E-09
    -24.007 -0.1305E-04 -0.1902E-05
    -23.861 -0.9692E-04 -0.1602E-04
    -23.716  0.6187E-02  0.8854E-03
    -23.570  0.8442E-03  0.1008E-02
    -23.424 -0.1611E-03  0.9849E-03
    -23.279  0.1752E-02  0.1240E-02
    -23.133  0.5448E-02  0.2034E-02
    -22.987 -0.2277E-03  0.2001E-02
    -22.841 -0.5298E-05  0.2000E-02
    -22.696 -0.5740E-09  0.2000E-02
    -22.550 -0.7292E-15  0.2000E-02
    -22.404  0.0000E+00  0.2000E-02
    -22.259  0.0000E+00  0.2000E-02
    -22.113  0.0000E+00  0.2000E-02
    -21.967  0.0000E+00  0.2000E-02
    -21.822  0.0000E+00  0.2000E-02
    -21.676  0.0000E+00  0.2000E-02
    -21.530  0.0000E+00  0.2000E-02
    -21.384  0.0000E+00  0.2000E-02
    -21.239  0.0000E+00  0.2000E-02
    -21.093  0.0000E+00  0.2000E-02
    -20.947  0.0000E+00  0.2000E-02
    -20.802  0.0000E+00  0.2000E-02
    -20.656  0.0000E+00  0.2000E-02
    -20.510  0.0000E+00  0.2000E-02
    -20.365  0.0000E+00  0.2000E-02
    -20.219  0.0000E+00  0.2000E-02
    -20.073  0.0000E+00  0.2000E-02
    -19.927  0.0000E+00  0.2000E-02
    -19.782  0.0000E+00  0.2000E-02
    -19.636  0.0000E+00  0.2000E-02
    -19.490  0.0000E+00  0.2000E-02
    -19.345  0.0000E+00  0.2000E-02
    -19.199  0.0000E+00  0.2000E-02
    -19.053  0.0000E+00  0.2000E-02
    -18.908  0.0000E+00  0.2000E-02
    -18.762  0.0000E+00  0.2000E-02
    -18.616  0.0000E+00  0.2000E-02
    -18.470  0.0000E+00  0.2000E-02
    -18.325  0.0000E+00  0.2000E-02
    -18.179  0.0000E+00  0.2000E-02
    -18.033  0.0000E+00  0.2000E-02
    -17.888  0.0000E+00  0.2000E-02
    -17.742  0.0000E+00  0.2000E-02
    -17.596  0.0000E+00  0.2000E-02
    -17.451  0.0000E+00  0.2000E-02
    -17.305  0.0000E+00  0.2000E-02
    -17.159  0.0000E+00  0.2000E-02
    -17.013  0.0000E+00  0.2000E-02
    -16.868  0.0000E+00  0.2000E-02
    -16.722  0.0000E+00  0.2000E-02
    -16.576  0.0000E+00  0.2000E-02
    -16.431  0.0000E+00  0.2000E-02
    -16.285  0.0000E+00  0.2000E-02
    -16.139  0.0000E+00  0.2000E-02
    -15.994  0.0000E+00  0.2000E-02
    -15.848  0.0000E+00  0.2000E-02
    -15.702  0.0000E+00  0.2000E-02
    -15.556  0.0000E+00  0.2000E-02
    -15.411  0.0000E+00  0.2000E-02
    -15.265  0.0000E+00  0.2000E-02
    -15.119  0.0000E+00  0.2000E-02
    -14.974  0.0000E+00  0.2000E-02
    -14.828  0.0000E+00  0.2000E-02
    -14.682  0.0000E+00  0.2000E-02
    -14.537  0.0000E+00  0.2000E-02
    -14.391  0.0000E+00  0.2000E-02
    -14.245  0.0000E+00  0.2000E-02
    -14.099  0.0000E+00  0.2000E-02
    -13.954  0.0000E+00  0.2000E-02
    -13.808  0.0000E+00  0.2000E-02
    -13.662  0.0000E+00  0.2000E-02
    -13.517  0.0000E+00  0.2000E-02
    -13.371  0.0000E+00  0.2000E-02
    -13.225  0.0000E+00  0.2000E-02
    -13.080  0.0000E+00  0.2000E-02
    -12.934  0.0000E+00  0.2000E-02
    -12.788  0.0000E+00  0.2000E-02
    -12.642  0.0000E+00  0.2000E-02
    -12.497  0.0000E+00  0.2000E-02
    -12.351  0.0000E+00  0.2000E-02
    -12.205  0.0000E+00  0.2000E-02
    -12.060  0.0000E+00  0.2000E-02
    -11.914  0.0000E+00  0.2000E-02
    -11.768 -0.1806E-38  0.2000E-02
    -11.623 -0.8720E-28  0.2000E-02
    -11.477 -0.5819E-19  0.2000E-02
    -11.331 -0.5048E-12  0.2000E-02
    -11.185 -0.5699E-07  0.2000E-02
    -11.040 -0.6530E-04  0.1990E-02
    -10.894  0.1004E-02  0.2137E-02
    -10.748  0.6073E-02  0.3022E-02
    -10.603 -0.1376E-03  0.3002E-02
    -10.457 -0.1097E-04  0.3000E-02
    -10.311 -0.4175E-06  0.3000E-02
    -10.166 -0.1517E-03  0.2978E-02
    -10.020  0.2654E-02  0.3365E-02
     -9.874  0.4600E-02  0.4035E-02
     -9.728 -0.2363E-03  0.4000E-02
     -9.583 -0.2402E-05  0.4000E-02
     -9.437 -0.1564E-09  0.4000E-02
     -9.291 -0.1219E-15  0.4000E-02
     -9.146  0.0000E+00  0.4000E-02
     -9.000  0.0000E+00  0.4000E-02
     -8.854  0.0000E+00  0.4000E-02
     -8.709  0.0000E+00  0.4000E-02
     -8.563  0.0000E+00  0.4000E-02
     -8.417  0.0000E+00  0.4000E-02
     -8.271  0.0000E+00  0.4000E-02
     -8.126  0.0000E+00  0.4000E-02
     -7.980  0.0000E+00  0.4000E-02
     -7.834  0.0000E+00  0.4000E-02
     -7.689 -0.7156E-41  0.4000E-02
     -7.543 -0.1905E-29  0.4000E-02
     -7.397 -0.2592E-20  0.4000E-02
     -7.252 -0.4633E-13  0.4000E-02
     -7.106 -0.1094E-07  0.4000E-02
     -6.960 -0.2823E-04  0.3996E-02
     -6.815  0.2264E-03  0.4029E-02
     -6.669  0.6441E-02  0.4967E-02
     -6.523  0.9552E-04  0.4981E-02
     -6.377  0.2739E-02  0.5380E-02
     -6.232  0.4489E-02  0.6034E-02
     -6.086 -0.2335E-03  0.6000E-02
     -5.940 -0.3117E-05  0.6000E-02
     -5.795 -0.1962E-03  0.5971E-02
     -5.649  0.3521E-02  0.6484E-02
     -5.503  0.3747E-02  0.7030E-02
     -5.358 -0.2067E-03  0.7000E-02
     -5.212 -0.1137E-05  0.7000E-02
     -5.066 -0.4741E-10  0.7000E-02
     -4.920 -0.5479E-16  0.7000E-02
     -4.775 -0.5664E-10  0.7000E-02
     -4.629 -0.1273E-05  0.7000E-02
     -4.483 -0.2123E-03  0.6969E-02
     -4.338  0.3876E-02  0.7534E-02
     -4.192  0.3373E-02  0.8025E-02
     -4.046 -0.1669E-03  0.8001E-02
     -3.901  0.6359E-02  0.8927E-02
     -3.755  0.5338E-03  0.9005E-02
     -3.609 -0.2286E-03  0.8972E-02
     -3.463  0.5848E-02  0.9824E-02
     -3.318  0.1289E-02  0.1001E-01
     -3.172 -0.7961E-04  0.1000E-01
     -3.026 -0.8770E-07  0.1000E-01
     -2.881 -0.9613E-12  0.1000E-01
     -2.735  0.0000E+00  0.1000E-01
     -2.589  0.0000E+00  0.1000E-01
     -2.444  0.0000E+00  0.1000E-01
     -2.298  0.0000E+00  0.1000E-01
     -2.152  0.0000E+00  0.1000E-01
     -2.006  0.0000E+00  0.1000E-01
     -1.861  0.0000E+00  0.1000E-01
     -1.715  0.0000E+00  0.1000E-01
     -1.569  0.0000E+00  0.1000E-01
     -1.424  0.0000E+00  0.1000E-01
     -1.278  0.0000E+00  0.1000E-01
     -1.132  0.0000E+00  0.1000E-01
     -0.987  0.0000E+00  0.1000E-01
     -0.841  0.0000E+00  0.1000E-01
     -0.695  0.0000E+00  0.1000E-01
     -0.549  0.0000E+00  0.1000E-01
     -0.404  0.0000E+00  0.1000E-01
     -0.258  0.0000E+00  0.1000E-01
     -0.112  0.0000E+00  0.1000E-01
      0.033  0.0000E+00  0.1000E-01
      0.179  0.0000E+00  0.1000E-01
      0.325  0.0000E+00  0.1000E-01
      0.470 -0.3624E-35  0.1000E-01
      0.616 -0.5036E-25  0.1000E-01
      0.762 -0.9251E-17  0.1000E-01
      0.908 -0.2355E-10  0.1000E-01
      1.053 -0.7271E-06  0.1000E-01
      1.199 -0.1828E-03  0.9973E-02
      1.345  0.3248E-02  0.1045E-01
      1.490  0.4019E-02  0.1103E-01
      1.636 -0.2182E-03  0.1100E-01
      1.782 -0.1442E-05  0.1100E-01
      1.927 -0.4639E-09  0.1100E-01
      2.073 -0.4231E-05  0.1100E-01
      2.219 -0.2368E-03  0.1096E-01
      2.365  0.5219E-02  0.1173E-01
      2.510  0.2003E-02  0.1202E-01
      2.656 -0.1273E-03  0.1200E-01
      2.802 -0.1479E-03  0.1198E-01
      2.947  0.6037E-02  0.1286E-01
      3.093  0.9202E-03  0.1299E-01
      3.239  0.2212E-02  0.1331E-01
      3.384  0.4959E-02  0.1404E-01
      3.530 -0.2400E-03  0.1400E-01
      3.676 -0.3319E-05  0.1400E-01
      3.822 -0.2648E-09  0.1400E-01
      3.967 -0.2515E-15  0.1400E-01
      4.113  0.0000E+00  0.1400E-01
      4.259  0.0000E+00  0.1400E-01
      4.404  0.0000E+00  0.1400E-01
      4.550  0.0000E+00  0.1400E-01
      4.696  0.0000E+00  0.1400E-01
      4.841  0.0000E+00  0.1400E-01
      4.987  0.0000E+00  0.1400E-01
      5.133  0.0000E+00  0.1400E-01
      5.279  0.0000E+00  0.1400E-01
      5.424  0.0000E+00  0.1400E-01
      5.570  0.0000E+00  0.1400E-01
      5.716  0.0000E+00  0.1400E-01
      5.861  0.0000E+00  0.1400E-01
      6.007  0.0000E+00  0.1400E-01
      6.153  0.0000E+00  0.1400E-01
      6.298  0.0000E+00  0.1400E-01
      6.444  0.0000E+00  0.1400E-01
      6.590  0.0000E+00  0.1400E-01
      6.736  0.0000E+00  0.1400E-01
      6.881  0.0000E+00  0.1400E-01
      7.027  0.0000E+00  0.1400E-01
      7.173  0.0000E+00  0.1400E-01
      7.318  0.0000E+00  0.1400E-01
      7.464  0.0000E+00  0.1400E-01
      7.610  0.0000E+00  0.1400E-01
      7.755  0.0000E+00  0.1400E-01
      7.901  0.0000E+00  0.1400E-01
      8.047  0.0000E+00  0.1400E-01
      8.193  0.0000E+00  0.1400E-01
      8.338  0.0000E+00  0.1400E-01
      8.484  0.0000E+00  0.1400E-01
      8.630  0.0000E+00  0.1400E-01
      8.775  0.0000E+00  0.1400E-01
      8.921  0.0000E+00  0.1400E-01
      9.067  0.0000E+00  0.1400E-01
      9.212  0.0000E+00  0.1400E-01
      9.358  0.0000E+00  0.1400E-01
      9.504  0.0000E+00  0.1400E-01
      9.650  0.0000E+00  0.1400E-01
      9.795  0.0000E+00  0.1400E-01
      9.941  0.0000E+00  0.1400E-01
     10.087  0.0000E+00  0.1400E-01
     10.232  0.0000E+00  0.1400E-01
     10.378  0.0000E+00  0.1400E-01
     10.524  0.0000E+00  0.1400E-01
     10.669 -0.2006E-34  0.1400E-01
     10.815 -0.2088E-24  0.1400E-01
     10.961 -0.2912E-16  0.1400E-01
     11.107 -0.5442E-10  0.1400E-01
     11.252 -0.1241E-05  0.1400E-01
     11.398 -0.2111E-03  0.1397E-01
     11.544  0.3847E-02  0.1453E-01
     11.689  0.3421E-02  0.1503E-01
     11.835 -0.2123E-03  0.1500E-01
     11.981  0.6726E-04  0.1501E-01
     12.126  0.6398E-02  0.1594E-01
     12.272  0.4572E-03  0.1601E-01
     12.418 -0.3894E-04  0.1600E-01
     12.564 -0.4175E-07  0.1600E-01
     12.709 -0.4040E-04  0.1599E-01
     12.855  0.4881E-03  0.1607E-01
     13.001  0.6386E-02  0.1700E-01
     13.146  0.5010E-04  0.1700E-01
     13.292 -0.2841E-04  0.1700E-01
     13.438 -0.1849E-03  0.1697E-01
     13.583  0.5861E-02  0.1783E-01
     13.729  0.1274E-02  0.1801E-01
     13.875 -0.7886E-04  0.1800E-01
     14.021 -0.8539E-07  0.1800E-01
     14.166 -0.9177E-12  0.1800E-01
     14.312  0.0000E+00  0.1800E-01
     14.458  0.0000E+00  0.1800E-01
     14.603  0.0000E+00  0.1800E-01
     14.749  0.0000E+00  0.1800E-01
     14.895 -0.1806E-32  0.1800E-01
     15.040 -0.8639E-23  0.1800E-01
     15.186 -0.5485E-15  0.1800E-01
     15.332 -0.4668E-09  0.1800E-01
     15.478 -0.4678E-05  0.1800E-01
     15.623 -0.2335E-03  0.1797E-01
     15.769  0.5263E-02  0.1873E-01
     15.915  0.2773E-02  0.1914E-01
     16.060  0.6050E-02  0.2002E-01
     16.206 -0.1073E-03  0.2000E-01
     16.352 -0.1254E-04  0.2000E-01
     16.497 -0.2510E-08  0.2000E-01
     16.643 -0.5713E-14  0.2000E-01
     16.789  0.0000E+00  0.2000E-01
     16.935  0.0000E+00  0.2000E-01
     17.080  0.0000E+00  0.2000E-01
     17.226  0.0000E+00  0.2000E-01
     17.372  0.0000E+00  0.2000E-01
     17.517  0.0000E+00  0.2000E-01
     17.663  0.0000E+00  0.2000E-01
     17.809  0.0000E+00  0.2000E-01
     17.954  0.0000E+00  0.2000E-01
