    2    2 1000    1
  0.1200000E+02  0.2000000E-09  0.3000000E-09  0.4000000E-09  0.5000000E-15
   1.0000000000000000E-004
  CAR 
 unknown system                          
     11      4     20

  0.2500000E+00  0.2500000E+00  0.1262379E-14  0.2500000E+00
      1        -23.768390   1.000000
      2        -23.246159   1.000000
      3        -10.845500   1.000000
      4        -10.003415   1.000000
      5         -6.742110   1.000000
      6         -6.361646   1.000000
      7         -5.647757   1.000000
      8         -4.341469   1.000000
      9         -3.960293   1.000000
     10         -3.507448   1.000000
     11          1.351188   0.999613
     12          2.336485  -0.000000
     13          2.900147  -0.000000
     14          3.261351  -0.000000
     15         11.539926   0.000000
     16         12.062162   0.000000
     17         12.918439   0.000000
     18         13.541063   0.000000
     19         15.739676   0.000000
     20         15.965792   0.000000

 -0.2500000E+00 -0.2500000E+00  0.1262379E-14  0.2500000E+00
      1        -23.768624   1.000000
      2        -23.245902   1.000000
      3        -10.845160   1.000000
      4        -10.003888   1.000000
      5         -6.740042   1.000000
      6         -6.364529   1.000000
      7         -5.646353   1.000000
      8         -4.341695   1.000000
      9         -3.964147   1.000000
     10         -3.503706   1.000000
     11          1.350837   1.000387
     12          2.337127  -0.000000
     13          2.899399  -0.000000
     14          3.261693  -0.000000
     15         11.540380   0.000000
     16         12.061783   0.000000
     17         12.918300   0.000000
     18         13.540910   0.000000
     19         15.738456   0.000000
     20         15.967240   0.000000

  0.2500000E+00 -0.2500000E+00  0.1262379E-14  0.2500000E+00
      1        -23.768377   1.000000
      2        -23.246172   1.000000
      3        -10.845483   1.000000
      4        -10.003408   1.000000
      5         -6.743429   1.000000
      6         -6.360966   1.000000
      7         -5.646640   1.000000
      8         -4.341565   1.000000
      9         -3.959859   1.000000
     10         -3.508280   1.000000
     11          1.350847   1.000363
     12          2.336472  -0.000000
     13          2.900178  -0.000000
     14          3.261688  -0.000000
     15         11.540389   0.000000
     16         12.061904   0.000000
     17         12.919197   0.000000
     18         13.539778   0.000000
     19         15.738150   0.000000
     20         15.967617   0.000000

 -0.2500000E+00  0.2500000E+00  0.1262379E-14  0.2500000E+00
      1        -23.768637   1.000000
      2        -23.245889   1.000000
      3        -10.845176   1.000000
      4        -10.003894   1.000000
      5         -6.738702   1.000000
      6         -6.365233   1.000000
      7         -5.647468   1.000000
      8         -4.341605   1.000000
      9         -3.964564   1.000000
     10         -3.502888   1.000000
     11          1.351178   0.999637
     12          2.337141  -0.000000
     13          2.899367  -0.000000
     14          3.261356  -0.000000
     15         11.539911   0.000000
     16         12.062052   0.000000
     17         12.917535   0.000000
     18         13.542196   0.000000
     19         15.739987   0.000000
     20         15.965410   0.000000
