       N       E                     dE             d eps       ncg     rms          rms(c)
DAV:   1     0.105441287409E+03    0.10544E+03   -0.61683E+03   160   0.117E+03
DAV:   2    -0.402317127504E+01   -0.10946E+03   -0.10493E+03   168   0.379E+02
DAV:   3    -0.978777158730E+01   -0.57646E+01   -0.57228E+01   200   0.864E+01
DAV:   4    -0.984332327508E+01   -0.55552E-01   -0.55542E-01   188   0.926E+00
DAV:   5    -0.984392931336E+01   -0.60604E-03   -0.60604E-03   188   0.965E-01    0.649E+01
RMM:   6    -0.108213522401E+02   -0.97742E+00   -0.12564E+00   160   0.119E+01    0.428E+01
RMM:   7    -0.103197960721E+02    0.50156E+00   -0.15107E+00   160   0.130E+01    0.157E+01
RMM:   8    -0.109225957162E+02   -0.60280E+00   -0.73962E-01   160   0.943E+00    0.397E+00
RMM:   9    -0.109314333089E+02   -0.88376E-02   -0.52326E-02   160   0.270E+00    0.986E-01
RMM:  10    -0.109285783614E+02    0.28549E-02   -0.74593E-03   160   0.116E+00    0.430E-01
RMM:  11    -0.109281286712E+02    0.44969E-03   -0.37639E-03   160   0.716E-01    0.157E-01
RMM:  12    -0.109280888697E+02    0.39801E-04   -0.35656E-03   160   0.651E-01    0.127E-01
RMM:  13    -0.109280981946E+02   -0.93249E-05   -0.29798E-03   160   0.574E-01    0.951E-02
RMM:  14    -0.109281027180E+02   -0.45234E-05   -0.10198E-03   160   0.363E-01    0.758E-02
RMM:  15    -0.109281218400E+02   -0.19122E-04   -0.58495E-04   160   0.282E-01    0.381E-02
RMM:  16    -0.109281417020E+02   -0.19862E-04   -0.18177E-04   160   0.155E-01    0.173E-02
RMM:  17    -0.109281557853E+02   -0.14083E-04   -0.17158E-04   160   0.147E-01    0.108E-02
RMM:  18    -0.109281526468E+02    0.31385E-05   -0.17861E-04   160   0.143E-01    0.113E-02
RMM:  19    -0.109281550643E+02   -0.24175E-05   -0.10630E-04   160   0.106E-01    0.634E-03
RMM:  20    -0.109281622718E+02   -0.72075E-05   -0.65800E-05   160   0.975E-02    0.550E-03
RMM:  21    -0.109281662023E+02   -0.39305E-05   -0.37448E-05   160   0.680E-02    0.438E-03
RMM:  22    -0.109281616051E+02    0.45972E-05   -0.34945E-05   160   0.722E-02    0.266E-03
RMM:  23    -0.109281682928E+02   -0.66877E-05   -0.46113E-05   160   0.741E-02    0.234E-03
RMM:  24    -0.109281689300E+02   -0.63718E-06   -0.40909E-05   160   0.685E-02    0.217E-03
RMM:  25    -0.109281705491E+02   -0.16191E-05   -0.25903E-05   152   0.538E-02    0.160E-03
RMM:  26    -0.109281700205E+02    0.52858E-06   -0.20441E-05   144   0.503E-02    0.135E-03
RMM:  27    -0.109281695537E+02    0.46674E-06   -0.25846E-05   144   0.544E-02    0.136E-03
RMM:  28    -0.109281695880E+02   -0.34247E-07   -0.77235E-06   144   0.296E-02
   1 F= -.10928170E+02 E0= -.10929136E+02  d E =-.109282E+02  mag=     0.5771     0.5771     0.5778
       N       E                     dE             d eps       ncg     rms          rms(c)
DAV:   1    -0.782624193136E+01    0.31019E+01   -0.28561E+02   160   0.177E+02    0.348E+01
RMM:   2    -0.972380468079E+01   -0.18976E+01   -0.13615E+01   160   0.408E+01    0.333E+01
RMM:   3    -0.891109625554E+01    0.81271E+00   -0.21533E+00   160   0.189E+01    0.322E+01
RMM:   4    -0.865090576863E+01    0.26019E+00   -0.27177E-01   160   0.748E+00    0.224E+01
RMM:   5    -0.863490312348E+01    0.16003E-01   -0.12424E-01   160   0.427E+00    0.497E+00
RMM:   6    -0.864314196282E+01   -0.82388E-02   -0.25595E-02   160   0.228E+00    0.155E+00
RMM:   7    -0.864338866233E+01   -0.24670E-03   -0.90023E-03   160   0.125E+00    0.115E+00
RMM:   8    -0.864644020456E+01   -0.30515E-02   -0.80074E-03   160   0.110E+00    0.104E+00
RMM:   9    -0.865563370312E+01   -0.91935E-02   -0.85960E-03   160   0.106E+00    0.726E-01
RMM:  10    -0.866132252572E+01   -0.56888E-02   -0.12096E-02   160   0.131E+00    0.561E-01
RMM:  11    -0.866299671379E+01   -0.16742E-02   -0.12545E-02   160   0.134E+00    0.370E-01
RMM:  12    -0.866267580548E+01    0.32091E-03   -0.80190E-03   160   0.102E+00    0.235E-01
RMM:  13    -0.866298448746E+01   -0.30868E-03   -0.50627E-03   160   0.777E-01    0.127E-01
RMM:  14    -0.866307415988E+01   -0.89672E-04   -0.39469E-03   160   0.664E-01    0.850E-02
RMM:  15    -0.866312897097E+01   -0.54811E-04   -0.30968E-03   160   0.582E-01    0.565E-02
RMM:  16    -0.866315760060E+01   -0.28630E-04   -0.68493E-04   160   0.256E-01    0.366E-02
RMM:  17    -0.866315747829E+01    0.12230E-06   -0.97740E-04   160   0.357E-01    0.239E-02
RMM:  18    -0.866318032914E+01   -0.22851E-04   -0.92394E-04   160   0.314E-01    0.163E-02
RMM:  19    -0.866316115730E+01    0.19172E-04   -0.48490E-04   160   0.227E-01    0.146E-02
RMM:  20    -0.866318158172E+01   -0.20424E-04   -0.68231E-04   160   0.269E-01    0.141E-02
RMM:  21    -0.866320495753E+01   -0.23376E-04   -0.19082E-04   160   0.129E-01    0.101E-02
RMM:  22    -0.866319870113E+01    0.62564E-05   -0.16731E-04   160   0.140E-01    0.781E-03
RMM:  23    -0.866321380455E+01   -0.15103E-04   -0.11227E-04   160   0.110E-01    0.537E-03
RMM:  24    -0.866321951863E+01   -0.57141E-05   -0.10708E-04   160   0.107E-01    0.408E-03
RMM:  25    -0.866322239076E+01   -0.28721E-05   -0.18293E-05   152   0.446E-02    0.226E-03
RMM:  26    -0.866322364576E+01   -0.12550E-05   -0.21652E-05   156   0.500E-02    0.158E-03
RMM:  27    -0.866322328290E+01    0.36287E-06   -0.27027E-05   160   0.578E-02    0.159E-03
RMM:  28    -0.866322581191E+01   -0.25290E-05   -0.18669E-05   156   0.431E-02    0.111E-03
RMM:  29    -0.866322492645E+01    0.88547E-06   -0.13223E-05   152   0.383E-02    0.123E-03
RMM:  30    -0.866322626738E+01   -0.13409E-05   -0.10091E-05   144   0.320E-02    0.157E-03
RMM:  31    -0.866322696508E+01   -0.69770E-06   -0.20635E-06   116   0.175E-02
   2 F= -.86632270E+01 E0= -.86641933E+01  d E =0.226494E+01  mag=     0.5770     0.5778     0.5772
       N       E                     dE             d eps       ncg     rms          rms(c)
DAV:   1    -0.985594568828E+01   -0.11927E+01   -0.72604E+01   160   0.913E+01    0.237E+01
RMM:   2    -0.102586995500E+02   -0.40275E+00   -0.28288E+00   160   0.185E+01    0.112E+01
RMM:   3    -0.104305341958E+02   -0.17183E+00   -0.37558E-01   160   0.791E+00    0.847E+00
RMM:   4    -0.102927944594E+02    0.13774E+00   -0.12755E-01   160   0.471E+00    0.338E+00
RMM:   5    -0.103009967963E+02   -0.82023E-02   -0.24098E-02   160   0.230E+00    0.162E+00
RMM:   6    -0.102999825049E+02    0.10143E-02   -0.51538E-03   160   0.973E-01    0.503E-01
RMM:   7    -0.103000010406E+02   -0.18536E-04   -0.45175E-03   160   0.801E-01    0.327E-01
RMM:   8    -0.103000838818E+02   -0.82841E-04   -0.25305E-03   160   0.588E-01    0.234E-01
RMM:   9    -0.103001394664E+02   -0.55585E-04   -0.85194E-04   160   0.396E-01    0.123E-01
RMM:  10    -0.103001767432E+02   -0.37277E-04   -0.19766E-03   160   0.480E-01    0.958E-02
RMM:  11    -0.103001750460E+02    0.16972E-05   -0.57037E-04   160   0.266E-01    0.760E-02
RMM:  12    -0.103001505020E+02    0.24544E-04   -0.11386E-03   160   0.375E-01    0.571E-02
RMM:  13    -0.103001715930E+02   -0.21091E-04   -0.45332E-04   160   0.223E-01    0.487E-02
RMM:  14    -0.103001853438E+02   -0.13751E-04   -0.45226E-04   160   0.244E-01    0.231E-02
RMM:  15    -0.103002134878E+02   -0.28144E-04   -0.22928E-04   160   0.152E-01    0.201E-02
RMM:  16    -0.103002082107E+02    0.52772E-05   -0.70558E-05   160   0.891E-02    0.814E-03
RMM:  17    -0.103002076013E+02    0.60939E-06   -0.12629E-04   160   0.119E-01    0.559E-03
RMM:  18    -0.103002113740E+02   -0.37728E-05   -0.84451E-05   160   0.914E-02    0.383E-03
RMM:  19    -0.103002128646E+02   -0.14905E-05   -0.47588E-05   160   0.672E-02    0.255E-03
RMM:  20    -0.103002133747E+02   -0.51013E-06   -0.30659E-05   156   0.543E-02    0.184E-03
RMM:  21    -0.103002176743E+02   -0.42996E-05   -0.19384E-05   152   0.438E-02    0.156E-03
RMM:  22    -0.103002193843E+02   -0.17100E-05   -0.74647E-06   136   0.265E-02    0.966E-04
RMM:  23    -0.103002185202E+02    0.86407E-06   -0.71687E-06   139   0.287E-02
   3 F= -.10300219E+02 E0= -.10301185E+02  d E =0.627951E+00  mag=     0.5760     0.5777     0.5783
       N       E                     dE             d eps       ncg     rms          rms(c)
DAV:   1    -0.109064058234E+02   -0.60619E+00   -0.20954E+01   160   0.511E+01    0.177E+01
RMM:   2    -0.109830405702E+02   -0.76635E-01   -0.10920E+00   160   0.122E+01    0.102E+01
RMM:   3    -0.110132830677E+02   -0.30242E-01   -0.16253E-01   160   0.516E+00    0.580E+00
RMM:   4    -0.109863704253E+02    0.26913E-01   -0.58423E-02   160   0.317E+00    0.181E+00
RMM:   5    -0.109794576681E+02    0.69128E-02   -0.11058E-02   160   0.153E+00    0.986E-01
RMM:   6    -0.109796495135E+02   -0.19185E-03   -0.46027E-03   160   0.846E-01    0.444E-01
RMM:   7    -0.109796514851E+02   -0.19716E-05   -0.39276E-03   160   0.730E-01    0.334E-01
RMM:   8    -0.109797264693E+02   -0.74984E-04   -0.94219E-04   160   0.347E-01    0.148E-01
RMM:   9    -0.109797020910E+02    0.24378E-04   -0.70729E-04   160   0.319E-01    0.960E-02
RMM:  10    -0.109797277613E+02   -0.25670E-04   -0.13087E-03   160   0.424E-01    0.728E-02
RMM:  11    -0.109796936368E+02    0.34125E-04   -0.74545E-04   160   0.297E-01    0.501E-02
RMM:  12    -0.109797323449E+02   -0.38708E-04   -0.35718E-04   160   0.206E-01    0.192E-02
RMM:  13    -0.109797444066E+02   -0.12062E-04   -0.10442E-04   160   0.125E-01    0.117E-02
RMM:  14    -0.109797506511E+02   -0.62444E-05   -0.16618E-04   160   0.154E-01    0.102E-02
RMM:  15    -0.109797494110E+02    0.12400E-05   -0.20774E-04   160   0.161E-01    0.710E-03
RMM:  16    -0.109797456274E+02    0.37836E-05   -0.21062E-04   160   0.161E-01    0.984E-03
RMM:  17    -0.109797525783E+02   -0.69509E-05   -0.11407E-04   160   0.114E-01    0.552E-03
RMM:  18    -0.109797531106E+02   -0.53230E-06   -0.37790E-05   160   0.685E-02    0.375E-03
RMM:  19    -0.109797530029E+02    0.10765E-06   -0.51726E-05   160   0.857E-02    0.248E-03
RMM:  20    -0.109797538283E+02   -0.82534E-06   -0.65163E-05   160   0.928E-02    0.183E-03
RMM:  21    -0.109797538062E+02    0.22033E-07   -0.53542E-05   160   0.830E-02    0.178E-03
RMM:  22    -0.109797545608E+02   -0.75454E-06   -0.38881E-05   160   0.708E-02    0.150E-03
RMM:  23    -0.109797536634E+02    0.89741E-06   -0.20848E-05   160   0.563E-02    0.148E-03
RMM:  24    -0.109797558973E+02   -0.22340E-05   -0.19307E-05   160   0.490E-02    0.929E-04
RMM:  25    -0.109797538408E+02    0.20565E-05   -0.30996E-05   168   0.677E-02    0.114E-03
RMM:  26    -0.109797550581E+02   -0.12173E-05   -0.35527E-05   168   0.692E-02    0.977E-04
RMM:  27    -0.109797556096E+02   -0.55155E-06   -0.15983E-05   160   0.482E-02    0.809E-04
RMM:  28    -0.109797564958E+02   -0.88617E-06   -0.10816E-06   104   0.121E-02
   4 F= -.10979756E+02 E0= -.10980723E+02  d E =-.515869E-01  mag=     0.5758     0.5783     0.5778
       N       E                     dE             d eps       ncg     rms          rms(c)
DAV:   1    -0.110293057869E+02   -0.49550E-01   -0.13000E+00   160   0.128E+01    0.435E+00
RMM:   2    -0.110337174655E+02   -0.44117E-02   -0.80642E-02   160   0.355E+00    0.293E+00
RMM:   3    -0.110345853534E+02   -0.86789E-03   -0.10740E-02   160   0.134E+00    0.150E+00
RMM:   4    -0.110344149690E+02    0.17038E-03   -0.58384E-03   160   0.958E-01    0.481E-01
RMM:   5    -0.110334762571E+02    0.93871E-03   -0.39054E-03   160   0.751E-01    0.261E-01
RMM:   6    -0.110334728178E+02    0.34393E-05   -0.29293E-03   160   0.617E-01    0.180E-01
RMM:   7    -0.110335300207E+02   -0.57203E-04   -0.10101E-03   160   0.366E-01    0.798E-02
RMM:   8    -0.110335275882E+02    0.24325E-05   -0.32634E-04   160   0.212E-01    0.350E-02
RMM:   9    -0.110335343195E+02   -0.67313E-05   -0.39946E-04   160   0.217E-01    0.309E-02
RMM:  10    -0.110335460047E+02   -0.11685E-04   -0.79742E-05   160   0.941E-02    0.236E-02
RMM:  11    -0.110335397874E+02    0.62172E-05   -0.90952E-05   160   0.112E-01    0.166E-02
RMM:  12    -0.110335443600E+02   -0.45726E-05   -0.10721E-04   160   0.116E-01    0.112E-02
RMM:  13    -0.110335526890E+02   -0.83290E-05   -0.59678E-05   160   0.826E-02    0.517E-03
RMM:  14    -0.110335543429E+02   -0.16539E-05   -0.31105E-05   160   0.607E-02    0.722E-03
RMM:  15    -0.110335543821E+02   -0.39182E-07   -0.17149E-05   160   0.442E-02    0.518E-03
RMM:  16    -0.110335581128E+02   -0.37307E-05   -0.51200E-06   144   0.230E-02    0.229E-03
RMM:  17    -0.110335573725E+02    0.74037E-06   -0.59909E-06   160   0.306E-02
   5 F= -.11033557E+02 E0= -.11034524E+02  d E =-.105388E+00  mag=     0.5755     0.5779     0.5785
       N       E                     dE             d eps       ncg     rms          rms(c)
DAV:   1    -0.110354032177E+02   -0.18451E-02   -0.73752E-02   160   0.305E+00    0.975E-01
RMM:   2    -0.110356381901E+02   -0.23497E-03   -0.45543E-03   160   0.870E-01    0.706E-01
RMM:   3    -0.110356164125E+02    0.21778E-04   -0.93128E-04   160   0.387E-01    0.374E-01
RMM:   4    -0.110356133330E+02    0.30794E-05   -0.19853E-03   160   0.529E-01    0.168E-01
RMM:   5    -0.110355490988E+02    0.64234E-04   -0.29528E-03   160   0.635E-01    0.163E-01
RMM:   6    -0.110355856635E+02   -0.36565E-04   -0.87610E-04   160   0.337E-01    0.472E-02
RMM:   7    -0.110355922559E+02   -0.65924E-05   -0.24170E-04   160   0.183E-01    0.293E-02
RMM:   8    -0.110356062052E+02   -0.13949E-04   -0.20899E-04   160   0.157E-01    0.190E-02
RMM:   9    -0.110356070199E+02   -0.81469E-06   -0.94411E-05   160   0.106E-01    0.140E-02
RMM:  10    -0.110356216686E+02   -0.14649E-04   -0.57433E-05   160   0.800E-02    0.761E-03
RMM:  11    -0.110356210295E+02    0.63907E-06   -0.27145E-05   160   0.600E-02    0.617E-03
RMM:  12    -0.110356187479E+02    0.22816E-05   -0.24359E-05   160   0.564E-02    0.481E-03
RMM:  13    -0.110356210068E+02   -0.22588E-05   -0.18514E-05   160   0.476E-02    0.358E-03
RMM:  14    -0.110356244136E+02   -0.34068E-05   -0.18514E-05   160   0.474E-02    0.357E-03
RMM:  15    -0.110356249762E+02   -0.56256E-06   -0.45385E-06   160   0.221E-02
   6 F= -.11035625E+02 E0= -.11036591E+02  d E =-.107455E+00  mag=     0.5748     0.5775     0.5796
       N       E                     dE             d eps       ncg     rms          rms(c)
DAV:   1    -0.110356293571E+02   -0.49435E-05   -0.21433E-04   160   0.167E-01    0.509E-02
RMM:   2    -0.110356241957E+02    0.51614E-05   -0.68990E-05   160   0.103E-01    0.376E-02
RMM:   3    -0.110355982369E+02    0.25959E-04   -0.41682E-04   160   0.233E-01    0.485E-02
RMM:   4    -0.110356091237E+02   -0.10887E-04   -0.26741E-04   160   0.187E-01    0.348E-02
RMM:   5    -0.110356064822E+02    0.26415E-05   -0.30049E-04   160   0.213E-01    0.213E-02
RMM:   6    -0.110356062416E+02    0.24063E-06   -0.25300E-04   160   0.173E-01    0.134E-02
RMM:   7    -0.110356215031E+02   -0.15261E-04   -0.11354E-04   160   0.132E-01    0.120E-02
RMM:   8    -0.110356288946E+02   -0.73915E-05   -0.39048E-05   160   0.663E-02    0.312E-03
RMM:   9    -0.110356310649E+02   -0.21704E-05   -0.21124E-05   160   0.573E-02    0.323E-03
RMM:  10    -0.110356316070E+02   -0.54212E-06   -0.75817E-06   152   0.277E-02
   7 F= -.11035632E+02 E0= -.11036598E+02  d E =-.107462E+00  mag=     0.5745     0.5770     0.5804
