 vasp.6.4.3 19Mar24 (build Jun 11 2024 10:25:29) complex                         
 executed on             LinuxGNU date 2024.07.25  11:26:29
 running    4 mpi-ranks, with    1 threads/rank, on    1 nodes
 distrk:  each k-point on    4 cores,    1 groups
 distr:  one band on NCORE=   1 cores,    4 groups


--------------------------------------------------------------------------------------------------------


 INCAR:
   PREC = Accurate
   ENCUT = 600
   ALGO = FAST
   ADDGRID = .TRUE.
   ISMEAR = 1
   SIGMA = 0.10
   LSORBIT = .TRUE.
   LMAXMIX = 4
   SAXIS = 0 0 1
   NBANDS = 20
   GGA_COMPAT = .FALSE.
   LWAVE = F
   LCHARG = T
   LREAL = Auto
   IBRION = 2
   NSW = 1000
   EDIFF = 1.00e-06
   EDIFFG = -0.01

 POTCAR:    PAW_PBE N_s 07Sep2000                 
 POTCAR:    PAW_PBE O_s 07Sep2000                 
 -----------------------------------------------------------------------------
|                                                                             |
|           W    W    AA    RRRRR   N    N  II  N    N   GGGG   !!!           |
|           W    W   A  A   R    R  NN   N  II  NN   N  G    G  !!!           |
|           W    W  A    A  R    R  N N  N  II  N N  N  G       !!!           |
|           W WW W  AAAAAA  RRRRR   N  N N  II  N  N N  G  GGG   !            |
|           WW  WW  A    A  R   R   N   NN  II  N   NN  G    G                |
|           W    W  A    A  R    R  N    N  II  N    N   GGGG   !!!           |
|                                                                             |
|     You use a magnetic or noncollinear calculation, but did not specify     |
|     the initial magnetic moment with the MAGMOM tag. Note that a            |
|     default of 1 will be used for all atoms. This ferromagnetic setup       |
|     may break the symmetry of the crystal, in particular it may rule        |
|     out finding an antiferromagnetic solution. Thence, we recommend         |
|     setting the initial magnetic moment manually or verifying carefully     |
|     that this magnetic setup is desired.                                    |
|                                                                             |
 -----------------------------------------------------------------------------

 POTCAR:    PAW_PBE N_s 07Sep2000                 
   SHA256 =  6c8253a28bdd4aedec2fa0e2af41be4a1b1a68ded8ac4a6237921e6dbb4872b1 N_s/POTCAR            
   COPYR  = (c) Copyright 07Sep2000 Georg Kresse                                                    
   COPYR  = This file is part of the software VASP. Any use, copying, and all other rights are regul
   COPYR  = If you do not have a valid VASP license, you may not use, copy or distribute this file. 
   VRHFIN =N: s2p3                                                                                  
   LEXCH  = PE                                                                                      
   EATOM  =   264.5486 eV,   19.4438 Ry                                                             
                                                                                                    
   TITEL  = PAW_PBE N_s 07Sep2000                                                                   
   LULTRA =        F    use ultrasoft PP ?                                                          
   IUNSCR =        0    unscreen: 0-lin 1-nonlin 2-no                                               
   RPACOR =    0.000    partial core radius                                                         
   POMASS =   14.001; ZVAL   =    5.000    mass and valenz                                          
   RCORE  =    1.850    outmost cutoff radius                                                       
   RWIGS  =    1.850; RWIGS  =    0.979    wigner-seitz radius (au A)                               
   ENMAX  =  279.692; ENMIN  =  209.769 eV                                                          
   RCLOC  =    0.803    cutoff for local pot                                                        
   LCOR   =        T    correct aug charges                                                         
   LPAW   =        T    paw PP                                                                      
   EAUG   =  384.743                                                                                
   DEXC   =    0.000                                                                                
   RMAX   =    1.893    core radius for proj-oper                                                   
   RAUG   =    1.300    factor for augmentation sphere                                              
   RDEP   =    1.933    radius for radial grids                                                     
   RDEPT  =    1.632    core radius for aug-charge                                                  
                                                                                                    
   Atomic configuration                                                                             
    4 entries                                                                                       
     n  l   j            E        occ.                                                              
     1  0  0.50      -384.7179   2.0000                                                             
     2  0  0.50       -18.5828   2.0000                                                             
     2  1  0.50        -7.0898   3.0000                                                             
     3  2  1.50        -1.3606   0.0000                                                             
   Description                                                                                      
     l       E           TYP  RCUT    TYP  RCUT                                                     
     0    -18.5828119     23  1.500                                                                 
     0    -19.9433945     23  1.500                                                                 
     1     -7.0897853     23  1.850                                                                 
     1     -4.8150613     23  1.850                                                                 
  local pseudopotential read in
  atomic valenz-charges read in
  non local Contribution for L=           0  read in
    real space projection operators read in
  non local Contribution for L=           0  read in
    real space projection operators read in
  non local Contribution for L=           1  read in
    real space projection operators read in
  non local Contribution for L=           1  read in
    real space projection operators read in
    PAW grid and wavefunctions read in

   number of l-projection  operators is LMAX  =           4
   number of lm-projection operators is LMMAX =           8

 POTCAR:    PAW_PBE O_s 07Sep2000                 
   SHA256 =  e7f4e16ee7752e7dead62f07b2b95b8f91122148deae9dd89b96c576b0e91599 O_s/POTCAR            
   COPYR  = (c) Copyright 07Sep2000 Georg Kresse                                                    
   COPYR  = This file is part of the software VASP. Any use, copying, and all other rights are regul
   COPYR  = If you do not have a valid VASP license, you may not use, copy or distribute this file. 
   VRHFIN =O: s2p4                                                                                  
   LEXCH  = PE                                                                                      
   EATOM  =   432.3788 eV,   31.7789 Ry                                                             
                                                                                                    
   TITEL  = PAW_PBE O_s 07Sep2000                                                                   
   LULTRA =        F    use ultrasoft PP ?                                                          
   IUNSCR =        0    unscreen: 0-lin 1-nonlin 2-no                                               
   RPACOR =    0.000    partial core radius                                                         
   POMASS =   16.000; ZVAL   =    6.000    mass and valenz                                          
   RCORE  =    1.850    outmost cutoff radius                                                       
   RWIGS  =    1.700; RWIGS  =    0.900    wigner-seitz radius (au A)                               
   ENMAX  =  282.853; ENMIN  =  212.140 eV                                                          
   RCLOC  =    0.804    cutoff for local pot                                                        
   LCOR   =        T    correct aug charges                                                         
   LPAW   =        T    paw PP                                                                      
   EAUG   =  412.352                                                                                
   RMAX   =    1.897    core radius for proj-oper                                                   
   RAUG   =    1.300    factor for augmentation sphere                                              
   RDEP   =    1.878    radius for radial grids                                                     
   RDEPT  =    1.572    core radius for aug-charge                                                  
                                                                                                    
   Atomic configuration                                                                             
    4 entries                                                                                       
     n  l   j            E        occ.                                                              
     1  0  0.50      -514.6923   2.0000                                                             
     2  0  0.50       -23.9615   2.0000                                                             
     2  1  0.50        -9.0305   4.0000                                                             
     3  2  1.50        -1.3606   0.0000                                                             
   Description                                                                                      
     l       E           TYP  RCUT    TYP  RCUT                                                     
     0    -23.9615315     23  1.500                                                                 
     0    -25.3221141     23  1.500                                                                 
     1     -9.0304908     23  1.850                                                                 
     1     -7.3935399     23  1.850                                                                 
  local pseudopotential read in
  atomic valenz-charges read in
  non local Contribution for L=           0  read in
    real space projection operators read in
  non local Contribution for L=           0  read in
    real space projection operators read in
  non local Contribution for L=           1  read in
    real space projection operators read in
  non local Contribution for L=           1  read in
    real space projection operators read in
    PAW grid and wavefunctions read in

   number of l-projection  operators is LMAX  =           4
   number of lm-projection operators is LMMAX =           8

 -----------------------------------------------------------------------------
|                                                                             |
|               ----> ADVICE to this user running VASP <----                  |
|                                                                             |
|     You have a (more or less) 'small supercell' and for smaller cells       |
|     it is recommended to use the reciprocal-space projection scheme!        |
|     The real-space optimization is not efficient for small cells and it     |
|     is also less accurate ...                                               |
|     Therefore, set LREAL=.FALSE. in the INCAR file.                         |
|                                                                             |
 -----------------------------------------------------------------------------

 Optimization of the real space projectors (new method)

 maximal supplied QI-value         = 20.41
 optimisation between [QCUT,QGAM] = [ 12.45, 24.90] = [ 43.40,173.61] Ry 
 Optimized for a Real-space Cutoff    1.09 Angstroem

   l    n(q)    QCUT    max X(q) W(low)/X(q) W(high)/X(q)  e(spline) 
   0      8    12.450   146.858    0.15E-03    0.12E-03    0.17E-06
   0      8    12.450   147.587    0.15E-03    0.12E-03    0.17E-06
   1      8    12.450    89.848    0.16E-03    0.39E-03    0.13E-06
   1      8    12.450    79.539    0.16E-03    0.40E-03    0.13E-06
 Optimization of the real space projectors (new method)

 maximal supplied QI-value         = 20.41
 optimisation between [QCUT,QGAM] = [ 12.45, 24.90] = [ 43.40,173.61] Ry 
 Optimized for a Real-space Cutoff    1.13 Angstroem

   l    n(q)    QCUT    max X(q) W(low)/X(q) W(high)/X(q)  e(spline) 
   0      8    12.450   131.351    0.24E-03    0.11E-03    0.28E-06
   0      8    12.450   135.858    0.23E-03    0.11E-03    0.28E-06
   1      8    12.450    82.965    0.10E-03    0.17E-03    0.11E-06
   1      8    12.450    77.399    0.99E-04    0.17E-03    0.11E-06
  PAW_PBE N_s 07Sep2000                 :
 energy of atom  1       EATOM= -264.5486
 kinetic energy error for atom=    0.0016 (will be added to EATOM!!)
  PAW_PBE O_s 07Sep2000                 :
 energy of atom  2       EATOM= -432.3788
 kinetic energy error for atom=    0.0024 (will be added to EATOM!!)


 POSCAR: sisl output
  positions in cartesian coordinates
  No initial velocities read in


 exchange-correlation table for PE
   RHO(1)=    0.500       N(1)  =     2000
   RHO(2)=  100.500       N(2)  =     4000



--------------------------------------------------------------------------------------------------------


 ion  position               nearest neighbor table
   1  0.500  0.500  0.560-   2 1.19
   2  0.500  0.500  0.262-   1 1.19

  LATTYP: Found a simple orthorhombic cell.
 ALAT       =     2.0000000000
 B/A-ratio  =     1.5000000000
 C/A-ratio  =     2.0000000000
  
  Lattice vectors:
  
 A1 = (   2.0000000000,   0.0000000000,   0.0000000000)
 A2 = (   0.0000000000,   3.0000000000,   0.0000000000)
 A3 = (   0.0000000000,   0.0000000000,   4.0000000000)


Analysis of symmetry for initial positions (statically):
=====================================================================
 Subroutine PRICEL returns:
 Original cell was already a primitive cell.
 

 Routine SETGRP: Setting up the symmetry group for a 
 simple orthorhombic supercell.


 Subroutine GETGRP returns: Found  4 space group operations
 (whereof  4 operations were pure point group operations)
 out of a pool of  8 trial point group operations.


The static configuration has the point symmetry C_2v.


Analysis of symmetry for dynamics (positions and initial velocities):
=====================================================================
 Subroutine PRICEL returns:
 Original cell was already a primitive cell.
 

 Routine SETGRP: Setting up the symmetry group for a 
 simple orthorhombic supercell.


 Subroutine GETGRP returns: Found  4 space group operations
 (whereof  4 operations were pure point group operations)
 out of a pool of  8 trial point group operations.


The dynamic configuration has the point symmetry C_2v.


Analysis of constrained symmetry for selective dynamics:
=====================================================================
 Subroutine PRICEL returns:
 Original cell was already a primitive cell.
 

 Routine SETGRP: Setting up the symmetry group for a 
 simple orthorhombic supercell.


 Subroutine GETGRP returns: Found  4 space group operations
 (whereof  4 operations were pure point group operations)
 out of a pool of  8 trial point group operations.


The constrained configuration has the point symmetry C_2v.


Analysis of structural, dynamic, and magnetic symmetry:
=====================================================================
 Subroutine PRICEL returns:
 Original cell was already a primitive cell.
 

 Routine SETGRP: Setting up the symmetry group for a 
 simple orthorhombic supercell.


 Subroutine GETGRP returns: Found  1 space group operations
 (whereof  1 operations were pure point group operations)
 out of a pool of  8 trial point group operations.


The overall configuration has the point symmetry C_1 .


 Subroutine INISYM returns: Found  1 space group operations
 (whereof  1 operations are pure point group operations),
 and found     1 'primitive' translations


----------------------------------------------------------------------------------------

                                     Primitive cell                                     

  volume of cell :      24.0000

  direct lattice vectors                    reciprocal lattice vectors
     2.000000000  0.000000000  0.000000000     0.500000000  0.000000000  0.000000000
     0.000000000  3.000000000  0.000000000     0.000000000  0.333333333  0.000000000
     0.000000000  0.000000000  4.000000000     0.000000000  0.000000000  0.250000000

  length of vectors
     2.000000000  3.000000000  4.000000000     0.500000000  0.333333333  0.250000000

  position of ions in fractional coordinates (direct lattice)
     0.500000000  0.500000000  0.560440282
     0.500000000  0.500000000  0.261936259

  ion indices of the primitive-cell ions
   primitive index   ion index
                 1           1
                 2           2

----------------------------------------------------------------------------------------



 KPOINTS: Automatic generation                    

Automatic generation of k-mesh.
 Grid dimensions read from file:
 generate k-points for:    2    2    1

 Generating k-lattice:

  Cartesian coordinates                     Fractional coordinates (reciprocal lattice)
     0.250000000  0.000000000  0.000000000     0.500000000  0.000000000  0.000000000
     0.000000000  0.166666667  0.000000000     0.000000000  0.500000000  0.000000000
     0.000000000  0.000000000  0.250000000     0.000000000  0.000000000  1.000000000

  Length of vectors
     0.250000000  0.166666667  0.250000000

  Shift w.r.t. Gamma in fractional coordinates (k-lattice)
     0.500000000  0.500000000  0.000000000

 
 Subroutine IBZKPT returns following result:
 ===========================================
 
 Found      4 irreducible k-points:
 
 Following reciprocal coordinates:
            Coordinates               Weight
  0.250000  0.250000  0.000000      1.000000
 -0.250000 -0.250000  0.000000      1.000000
  0.250000 -0.250000  0.000000      1.000000
 -0.250000  0.250000  0.000000      1.000000
 
 Following cartesian coordinates:
            Coordinates               Weight
  0.125000  0.083333  0.000000      1.000000
 -0.125000 -0.083333  0.000000      1.000000
  0.125000 -0.083333  0.000000      1.000000
 -0.125000  0.083333  0.000000      1.000000
 


--------------------------------------------------------------------------------------------------------




 Dimension of arrays:
   k-points           NKPTS =      4   k-points in BZ     NKDIM =      4   number of bands    NBANDS=     20
   number of dos      NEDOS =    301   number of ions     NIONS =      2
   non local maximal  LDIM  =      4   non local SUM 2l+1 LMDIM =      8
   total plane-waves  NPLWV =  12288
   max r-space proj   IRMAX =   3121   max aug-charges    IRDMAX= 105076
   dimension x,y,z NGX =    16 NGY =   24 NGZ =   32
   dimension x,y,z NGXF=    32 NGYF=   48 NGZF=   64
   support grid    NGXF=    64 NGYF=   96 NGZF=  128
   ions per type =               1   1
   NGX,Y,Z   is equivalent  to a cutoff of  13.30, 13.30, 13.30 a.u.
   NGXF,Y,Z  is equivalent  to a cutoff of  26.60, 26.60, 26.60 a.u.

 SYSTEM =  unknown system                          
 POSCAR =  sisl output                             

 Startparameter for this run:
   NWRITE =      2    write-flag & timer
   PREC   = accura    normal or accurate (medium, high low for compatibility)
   ISTART =      0    job   : 0-new  1-cont  2-samecut
   ICHARG =      2    charge: 1-file 2-atom 10-const
   ISPIN  =      1    spin polarized calculation?
   LNONCOLLINEAR =      T non collinear calculations
   LSORBIT =      T    spin-orbit coupling
   INIWAV =      1    electr: 0-lowe 1-rand  2-diag
   LASPH  =      F    aspherical Exc in radial PAW
 Electronic Relaxation 1
   ENCUT  =  600.0 eV  44.10 Ry    6.64 a.u.   3.99  5.99  7.99*2*pi/ulx,y,z
   ENINI  =  600.0     initial cutoff
   ENAUG  =  412.4 eV  augmentation charge cutoff
   NELM   =     60;   NELMIN=  2; NELMDL= -5     # of ELM steps 
   EDIFF  = 0.1E-05   stopping-criterion for ELM
   LREAL  =      T    real-space projection
   NLSPLINE    = F    spline interpolate recip. space projectors
   LCOMPAT=      F    compatible to vasp.4.4
   GGA_COMPAT  = F    GGA compatible to vasp.4.4-vasp.4.6
   LMAXPAW     = -100 max onsite density
   LMAXMIX     =    4 max onsite mixed and CHGCAR
   VOSKOWN=      0    Vosko Wilk Nusair interpolation
   ROPT   =   -0.00025  -0.00025
 Ionic relaxation
   EDIFFG = -.1E-01   stopping-criterion for IOM
   NSW    =   1000    number of steps for IOM
   NBLOCK =      1;   KBLOCK =   1000    inner block; outer block 
   IBRION =      2    ionic relax: 0-MD 1-quasi-New 2-CG
   NFREE  =      1    steps in history (QN), initial steepest desc. (CG)
   ISIF   =      2    stress and relaxation
   IWAVPR =     11    prediction:  0-non 1-charg 2-wave 3-comb
   ISYM   =      2    0-nonsym 1-usesym 2-fastsym
   LCORR  =      T    Harris-Foulkes like correction to forces

   POTIM  = 0.5000    time-step for ionic-motion
   TEIN   =    0.0    initial temperature
   TEBEG  =    0.0;   TEEND  =   0.0 temperature during run
   SMASS  =  -3.00    Nose mass-parameter (am)
   estimated Nose-frequenzy (Omega)   =  0.10E-29 period in steps = 0.13E+47 mass=  -0.914E-28a.u.
   SCALEE = 1.0000    scale energy and forces
   NPACO  =    256;   APACO  = 10.0  distance and # of slots for P.C.
   PSTRESS=    0.0 pullay stress

  Mass of Ions in am
   POMASS =  14.00 16.00
  Ionic Valenz
   ZVAL   =   5.00  6.00
  Atomic Wigner-Seitz radii
   RWIGS  =  -1.00 -1.00
  virtual crystal weights 
   VCA    =   1.00  1.00
   NELECT =      11.0000    total number of electrons
   NUPDOWN=      -1.0000    fix difference up-down

 DOS related values:
   EMIN   =  10.00;   EMAX   =-10.00  energy-range for DOS
   EFERMI =   0.00;   METHOD = LEGACY      
   ISMEAR =     1;   SIGMA  =   0.10  broadening in eV -4-tet -1-fermi 0-gaus

 Electronic relaxation 2 (details)
   IALGO  =     68    algorithm
   LDIAG  =      T    sub-space diagonalisation (order eigenvalues)
   LSUBROT=      F    optimize rotation matrix (better conditioning)
   TURBO    =      0    0=normal 1=particle mesh
   IRESTART =      0    0=no restart 2=restart with 2 vectors
   NREBOOT  =      0    no. of reboots
   NMIN     =      0    reboot dimension
   EREF     =   0.00    reference energy to select bands
   IMIX   =      4    mixing-type and parameters
     AMIX     =   0.40;   BMIX     =  1.00
     AMIX_MAG =   1.60;   BMIX_MAG =  1.00
     AMIN     =   0.10
     WC   =   100.;   INIMIX=   1;  MIXPRE=   1;  MAXMIX= -45

 Intra band minimization:
   WEIMIN = 0.0010     energy-eigenvalue tresh-hold
   EBREAK =  0.12E-07  absolut break condition
   DEPER  =   0.30     relativ break condition  

   TIME   =   0.40     timestep for ELM

  volume/ion in A,a.u.               =      12.00        80.98
  Fermi-wavevector in a.u.,A,eV,Ry     =   1.262221  2.385251 21.676818  1.593201
  Thomas-Fermi vector in A             =   2.395640

 Write flags
   LWAVE        =      F    write WAVECAR
   LDOWNSAMPLE  =      F    k-point downsampling of WAVECAR
   LCHARG       =      T    write CHGCAR
   LVTOT        =      F    write LOCPOT, total local potential
   LVHAR        =      F    write LOCPOT, Hartree potential only
   WRT_POTENTIAL= false  ! write potential to hdf5 file
   LELF         =      F    write electronic localiz. function (ELF)
   LORBIT       =      0    0 simple, 1 ext, 2 COOP (PROOUT), +10 PAW based schemes


 Dipole corrections
   LMONO      =      F    monopole corrections only (constant potential shift)
   LDIPOL     =      F    correct potential (dipole corrections)
   IDIPOL     =      0    1-x, 2-y, 3-z, 4-all directions 
   EPSILON    =  1.0000000 bulk dielectric constant
   LVACPOTAV  =      F  vacuum potentials using an averaging scheme for the charge density
   VACPOTFLAT =  0.1000000 required flatness to determine vacuum potential
 Exchange correlation treatment:
   GGA     = PE    functional components
   XC_C    = 1    coefficients multiplying the functional components
   LIBXC   =     F    Libxc                    
   VOSKOWN =     0    Vosko Wilk Nusair interpolation
   LHFCALC =     F    Hartree Fock is set to
   LHFONE  =     F    Hartree Fock one center treatment
   AEXX    =    0.0000 exact exchange contribution

 Parameters of functionals:
   PE:
     No parameter

 Van der Waals corrections
   IVDW    =     0    specifies the selected vdW correction

 Linear response parameters
   LEPSILON=     F    determine dielectric tensor
   LRPA    =     F    only Hartree local field effects (RPA)
   LNABLA  =     F    use nabla operator in PAW spheres
   LVEL    =     F    velocity operator in full k-point grid
   CSHIFT  =0.1000    complex shift for real part using Kramers Kronig
   OMEGAMAX=  -1.0    maximum frequency
   DEG_THRESHOLD= 0.2000000E-02 threshold for treating states as degnerate
   RTIME   =   -0.100 relaxation time in fs
  (WPLASMAI=    0.000 imaginary part of plasma frequency in eV, 0.658/RTIME)
   DFIELD  = 0.0000000 0.0000000 0.0000000 field for delta impulse in time

  Optional k-point grid parameters
   LKPOINTS_OPT  =     F    use optional k-point grid
   KPOINTS_OPT_MODE=     1    mode for optional k-point grid

 Orbital magnetization related:
   ORBITALMAG=     F  switch on orbital magnetization
   LCHIMAG   =     F  perturbation theory with respect to B field
   DQ        =  0.001000  dq finite difference perturbation B field
   LLRAUG    =     F  two centre corrections for induced B field
   LBONE     =     F  B-component reconstruction in AE one-centre
   LVGVCALC  =     T  calculate vGv susceptibility
   LVGVAPPL  =     F  apply vGv susceptibility instead of pGv for G=0

 Random number generation:
   RANDOM_GENERATOR = DEFAULT
   PCG_SEED         = not used


--------------------------------------------------------------------------------------------------------


 conjugate gradient relaxation of ions
   using selective dynamics as specified on POSCAR
   WARNING: If single coordinates had been selected the selection of coordinates
            is made according to the corresponding   d i r e c t   coordinates!
            Don't support selection of single cartesian coordinates -- sorry ... !
 charge density and potential will be updated during run
 non collinear spin polarized calculation
 RMM-DIIS sequential band-by-band and
  variant of blocked Davidson during initial phase
 perform sub-space diagonalisation
    before iterative eigenvector-optimisation
 modified Broyden-mixing scheme, WC =      100.0
 initial mixing is a Kerker type mixing with AMIX =  0.4000 and BMIX =      1.0000
 Hartree-type preconditioning will be used
 using additional bands           14
 real space projection scheme for non local part
 calculate Harris-corrections to forces   (improved forces if not selfconsistent)
 use gradient corrections 
 use of overlap-Matrix (Vanderbilt PP)
 Methfessel and Paxton  Order N= 1 SIGMA  =   0.10


--------------------------------------------------------------------------------------------------------


  energy-cutoff  :      600.00
  volume of cell :       24.00
      direct lattice vectors                 reciprocal lattice vectors
     2.000000000  0.000000000  0.000000000     0.500000000  0.000000000  0.000000000
     0.000000000  3.000000000  0.000000000     0.000000000  0.333333333  0.000000000
     0.000000000  0.000000000  4.000000000     0.000000000  0.000000000  0.250000000

  length of vectors
     2.000000000  3.000000000  4.000000000     0.500000000  0.333333333  0.250000000



 k-points in units of 2pi/SCALE and weight: Automatic generation                    
   0.12500000  0.08333333  0.00000000       0.250
  -0.12500000 -0.08333333  0.00000000       0.250
   0.12500000 -0.08333333  0.00000000       0.250
  -0.12500000  0.08333333  0.00000000       0.250

 k-points in reciprocal lattice and weights: Automatic generation                    
   0.25000000  0.25000000  0.00000000       0.250
  -0.25000000 -0.25000000  0.00000000       0.250
   0.25000000 -0.25000000  0.00000000       0.250
  -0.25000000  0.25000000  0.00000000       0.250

 position of ions in fractional coordinates (direct lattice) 
   0.50000000  0.50000000  0.56044028
   0.50000000  0.50000000  0.26193626

 position of ions in cartesian coordinates  (Angst):
   1.00000000  1.50000000  2.24176113
   1.00000000  1.50000000  1.04774504

 Euler angles ALPHA=     0.0000000  BETA=     0.0000000

 transformation matrix from SAXIS to cartesian coordinates
 ---------------------------------------------------------
     1.0000000 m_x    -0.0000000 m_y     0.0000000 m_z
     0.0000000 m_x     1.0000000 m_y     0.0000000 m_z
    -0.0000000 m_x     0.0000000 m_y     1.0000000 m_z

 transformation matrix from cartesian coordinates to SAXIS
 ---------------------------------------------------------
     1.0000000 m_x     0.0000000 m_y    -0.0000000 m_z
    -0.0000000 m_x     1.0000000 m_y     0.0000000 m_z
     0.0000000 m_x     0.0000000 m_y     1.0000000 m_z




--------------------------------------------------------------------------------------------------------


 k-point     1 :   0.2500 0.2500 0.0000  plane waves:    1596
 k-point     2 :  -0.2500-0.2500 0.0000  plane waves:    1596
 k-point     3 :   0.2500-0.2500 0.0000  plane waves:    1596
 k-point     4 :  -0.2500 0.2500 0.0000  plane waves:    1596

 maximum and minimum number of plane-waves per node :      1596     1596

 maximum number of plane-waves:      1596
 maximum index in each direction: 
   IXMAX=    4   IYMAX=    6   IZMAX=    7
   IXMIN=   -4   IYMIN=   -6   IZMIN=   -7


 serial   3D FFT for wavefunctions
 parallel 3D FFT for charge:
    minimum data exchange during FFTs selected (reduces bandwidth)


 total amount of memory used by VASP MPI-rank0    45765. kBytes
=======================================================================

   base      :      30000. kBytes
   nonlr-proj:        506. kBytes
   fftplans  :       7242. kBytes
   grid      :       7471. kBytes
   one-center:         24. kBytes
   wavefun   :        522. kBytes

     INWAV:  cpu time      0.0000: real time      0.0000
 Broyden mixing: mesh for mixing (old mesh)
   NGX =  7   NGY = 11   NGZ = 15
  (NGX  = 32   NGY  = 48   NGZ  = 64)
  gives a total of   1155 points

 initial charge density was supplied:
 charge density of overlapping atoms calculated
 number of electron      11.0000000 magnetization       2.0000000      2.0000000      2.0000000
 keeping initial charge density in first step


--------------------------------------------------------------------------------------------------------


 Maximum index for non-local projection operator         2970
 Maximum index for augmentation-charges        25448 (set IRDMAX)


--------------------------------------------------------------------------------------------------------


 First call to EWALD:  gamma=   0.614
 Maximum number of real-space cells 4x 3x 2
 Maximum number of reciprocal cells 2x 3x 4

    FEWALD:  cpu time      0.0006: real time      0.0006


--------------------------------------- Ionic step        1  -------------------------------------------




--------------------------------------- Iteration      1(   1)  ---------------------------------------


    POTLOK:  cpu time      0.0544: real time      0.0551
    SETDIJ:  cpu time      0.0594: real time      0.0600
     EDDAV:  cpu time      0.1100: real time      0.1147
       DOS:  cpu time      0.0001: real time      0.0001
    --------------------------------------------
      LOOP:  cpu time      0.2239: real time      0.2299

 eigenvalue-minimisations  :   160
 total energy-change (2. order) : 0.1054413E+03  (-0.6168311E+03)
 number of electron      11.0000000 magnetization       2.0000000      2.0000000      2.0000000
 augmentation part       11.0000000 magnetization       2.0000000      2.0000000      2.0000000

 Free energy of the ion-electron system (eV)
  ---------------------------------------------------
  alpha Z        PSCENC =        15.03510525
  Ewald energy   TEWEN  =      -399.22983762
  -Hartree energ DENC   =      -260.96009246
  -exchange      EXHF   =         0.00000000
  -V(xc)+E(xc)   XCENC  =        48.09450970
  PAW double counting   =       548.25871254     -553.59201511
  entropy T*S    EENTRO =         0.00072474
  eigenvalues    EBANDS =        10.91068346
  atomic energy  EATOM  =       696.92349690
  Solvation  Ediel_sol  =         0.00000000
  ---------------------------------------------------
  free energy    TOTEN  =       105.44128741 eV

  energy without entropy =      105.44056267  energy(sigma->0) =      105.44104583


--------------------------------------------------------------------------------------------------------




--------------------------------------- Iteration      1(   2)  ---------------------------------------


     EDDAV:  cpu time      0.1126: real time      0.1129
       DOS:  cpu time      0.0001: real time      0.0001
    --------------------------------------------
      LOOP:  cpu time      0.1127: real time      0.1130

 eigenvalue-minimisations  :   168
 total energy-change (2. order) :-0.1094645E+03  (-0.1049328E+03)
 number of electron      11.0000000 magnetization       2.0000000      2.0000000      2.0000000
 augmentation part       11.0000000 magnetization       2.0000000      2.0000000      2.0000000

 Free energy of the ion-electron system (eV)
  ---------------------------------------------------
  alpha Z        PSCENC =        15.03510525
  Ewald energy   TEWEN  =      -399.22983762
  -Hartree energ DENC   =      -260.96009246
  -exchange      EXHF   =         0.00000000
  -V(xc)+E(xc)   XCENC  =        48.09450970
  PAW double counting   =       548.25871254     -553.59201511
  entropy T*S    EENTRO =         0.00137142
  eigenvalues    EBANDS =       -98.55442190
  atomic energy  EATOM  =       696.92349690
  Solvation  Ediel_sol  =         0.00000000
  ---------------------------------------------------
  free energy    TOTEN  =        -4.02317128 eV

  energy without entropy =       -4.02454269  energy(sigma->0) =       -4.02362841


--------------------------------------------------------------------------------------------------------




--------------------------------------- Iteration      1(   3)  ---------------------------------------


     EDDAV:  cpu time      0.1286: real time      0.1289
       DOS:  cpu time      0.0001: real time      0.0001
    --------------------------------------------
      LOOP:  cpu time      0.1287: real time      0.1290

 eigenvalue-minimisations  :   200
 total energy-change (2. order) :-0.5764600E+01  (-0.5722783E+01)
 number of electron      11.0000000 magnetization       2.0000000      2.0000000      2.0000000
 augmentation part       11.0000000 magnetization       2.0000000      2.0000000      2.0000000

 Free energy of the ion-electron system (eV)
  ---------------------------------------------------
  alpha Z        PSCENC =        15.03510525
  Ewald energy   TEWEN  =      -399.22983762
  -Hartree energ DENC   =      -260.96009246
  -exchange      EXHF   =         0.00000000
  -V(xc)+E(xc)   XCENC  =        48.09450970
  PAW double counting   =       548.25871254     -553.59201511
  entropy T*S    EENTRO =         0.00290116
  eigenvalues    EBANDS =      -104.32055196
  atomic energy  EATOM  =       696.92349690
  Solvation  Ediel_sol  =         0.00000000
  ---------------------------------------------------
  free energy    TOTEN  =        -9.78777159 eV

  energy without entropy =       -9.79067275  energy(sigma->0) =       -9.78873864


--------------------------------------------------------------------------------------------------------




--------------------------------------- Iteration      1(   4)  ---------------------------------------


     EDDAV:  cpu time      0.1231: real time      0.1234
       DOS:  cpu time      0.0001: real time      0.0001
    --------------------------------------------
      LOOP:  cpu time      0.1232: real time      0.1236

 eigenvalue-minimisations  :   188
 total energy-change (2. order) :-0.5555169E-01  (-0.5554209E-01)
 number of electron      11.0000000 magnetization       2.0000000      2.0000000      2.0000000
 augmentation part       11.0000000 magnetization       2.0000000      2.0000000      2.0000000

 Free energy of the ion-electron system (eV)
  ---------------------------------------------------
  alpha Z        PSCENC =        15.03510525
  Ewald energy   TEWEN  =      -399.22983762
  -Hartree energ DENC   =      -260.96009246
  -exchange      EXHF   =         0.00000000
  -V(xc)+E(xc)   XCENC  =        48.09450970
  PAW double counting   =       548.25871254     -553.59201511
  entropy T*S    EENTRO =         0.00289900
  eigenvalues    EBANDS =      -104.37610148
  atomic energy  EATOM  =       696.92349690
  Solvation  Ediel_sol  =         0.00000000
  ---------------------------------------------------
  free energy    TOTEN  =        -9.84332328 eV

  energy without entropy =       -9.84622227  energy(sigma->0) =       -9.84428961


--------------------------------------------------------------------------------------------------------




--------------------------------------- Iteration      1(   5)  ---------------------------------------


     EDDAV:  cpu time      0.1225: real time      0.1228
       DOS:  cpu time      0.0001: real time      0.0001
    CHARGE:  cpu time      0.0605: real time      0.0607
    MIXING:  cpu time      0.0044: real time      0.0046
    --------------------------------------------
      LOOP:  cpu time      0.1875: real time      0.1882

 eigenvalue-minimisations  :   188
 total energy-change (2. order) :-0.6060383E-03  (-0.6060375E-03)
 number of electron      11.0000000 magnetization       0.3801811      0.3801748      0.3803111
 augmentation part        1.7283562 magnetization       0.0105819      0.0105775      0.0106447

 Broyden mixing:
  rms(total) = 0.64876E+01    rms(broyden)= 0.64876E+01
  rms(prec ) = 0.65329E+01
  weight for this iteration     100.00

 Free energy of the ion-electron system (eV)
  ---------------------------------------------------
  alpha Z        PSCENC =        15.03510525
  Ewald energy   TEWEN  =      -399.22983762
  -Hartree energ DENC   =      -260.96009246
  -exchange      EXHF   =         0.00000000
  -V(xc)+E(xc)   XCENC  =        48.09450970
  PAW double counting   =       548.25871254     -553.59201511
  entropy T*S    EENTRO =         0.00289900
  eigenvalues    EBANDS =      -104.37670752
  atomic energy  EATOM  =       696.92349690
  Solvation  Ediel_sol  =         0.00000000
  ---------------------------------------------------
  free energy    TOTEN  =        -9.84392931 eV

  energy without entropy =       -9.84682831  energy(sigma->0) =       -9.84489565


--------------------------------------------------------------------------------------------------------




--------------------------------------- Iteration      1(   6)  ---------------------------------------


    POTLOK:  cpu time      0.0550: real time      0.0552
    SETDIJ:  cpu time      0.0588: real time      0.0589
    EDDIAG:  cpu time      0.0230: real time      0.0313
  RMM-DIIS:  cpu time      0.0711: real time      0.0713
    ORTHCH:  cpu time      0.0028: real time      0.0028
       DOS:  cpu time      0.0001: real time      0.0001
    CHARGE:  cpu time      0.0576: real time      0.0577
    MIXING:  cpu time      0.0044: real time      0.0125
    --------------------------------------------
      LOOP:  cpu time      0.2728: real time      0.2899

 eigenvalue-minimisations  :   160
 total energy-change (2. order) :-0.9774229E+00  (-0.1256359E+00)
 number of electron      11.0000000 magnetization       0.8249934      0.8260984      0.8251139
 augmentation part        1.6502664 magnetization       0.4361761      0.4369525      0.4362138

 Broyden mixing:
  rms(total) = 0.42790E+01    rms(broyden)= 0.42790E+01
  rms(prec ) = 0.43026E+01
  weight for this iteration     100.00

 eigenvalues of (default mixing * dielectric matrix)
  average eigenvalue GAMMA=   1.4852
  1.4852

 Free energy of the ion-electron system (eV)
  ---------------------------------------------------
  alpha Z        PSCENC =        15.03510525
  Ewald energy   TEWEN  =      -399.22983762
  -Hartree energ DENC   =      -264.87996698
  -exchange      EXHF   =         0.00000000
  -V(xc)+E(xc)   XCENC  =        47.69205106
  PAW double counting   =      1235.33707656    -1241.08507329
  entropy T*S    EENTRO =         0.00289897
  eigenvalues    EBANDS =      -100.61710309
  atomic energy  EATOM  =       696.92349690
  Solvation  Ediel_sol  =         0.00000000
  ---------------------------------------------------
  free energy    TOTEN  =       -10.82135224 eV

  energy without entropy =      -10.82425121  energy(sigma->0) =      -10.82231856


--------------------------------------------------------------------------------------------------------




--------------------------------------- Iteration      1(   7)  ---------------------------------------


    POTLOK:  cpu time      0.0552: real time      0.0555
    SETDIJ:  cpu time      0.0565: real time      0.0569
    EDDIAG:  cpu time      0.0215: real time      0.0216
  RMM-DIIS:  cpu time      0.0711: real time      0.0715
    ORTHCH:  cpu time      0.0028: real time      0.0028
       DOS:  cpu time      0.0001: real time      0.0001
    CHARGE:  cpu time      0.0607: real time      0.0610
    MIXING:  cpu time      0.0029: real time      0.0029
    --------------------------------------------
      LOOP:  cpu time      0.2709: real time      0.2723

 eigenvalue-minimisations  :   160
 total energy-change (2. order) : 0.5015562E+00  (-0.1510691E+00)
 number of electron      11.0000000 magnetization       0.6858638      0.6870309      0.6855232
 augmentation part        1.7007417 magnetization       0.3085884      0.3091535      0.3085427

 Broyden mixing:
  rms(total) = 0.15745E+01    rms(broyden)= 0.15745E+01
  rms(prec ) = 0.17709E+01
  weight for this iteration     100.00

 eigenvalues of (default mixing * dielectric matrix)
  average eigenvalue GAMMA=   1.5703
  0.6494  2.4913

 Free energy of the ion-electron system (eV)
  ---------------------------------------------------
  alpha Z        PSCENC =        15.03510525
  Ewald energy   TEWEN  =      -399.22983762
  -Hartree energ DENC   =      -264.43886545
  -exchange      EXHF   =         0.00000000
  -V(xc)+E(xc)   XCENC  =        48.26366844
  PAW double counting   =      2724.37313761    -2730.15731396
  entropy T*S    EENTRO =         0.00289903
  eigenvalues    EBANDS =      -101.09208628
  atomic energy  EATOM  =       696.92349690
  Solvation  Ediel_sol  =         0.00000000
  ---------------------------------------------------
  free energy    TOTEN  =       -10.31979607 eV

  energy without entropy =      -10.32269510  energy(sigma->0) =      -10.32076242


--------------------------------------------------------------------------------------------------------




--------------------------------------- Iteration      1(   8)  ---------------------------------------


    POTLOK:  cpu time      0.0562: real time      0.0564
    SETDIJ:  cpu time      0.0569: real time      0.0572
    EDDIAG:  cpu time      0.0216: real time      0.0217
  RMM-DIIS:  cpu time      0.0709: real time      0.0712
    ORTHCH:  cpu time      0.0029: real time      0.0029
       DOS:  cpu time      0.0001: real time      0.0001
    CHARGE:  cpu time      0.0604: real time      0.0607
    MIXING:  cpu time      0.0030: real time      0.0030
    --------------------------------------------
      LOOP:  cpu time      0.2719: real time      0.2730

 eigenvalue-minimisations  :   160
 total energy-change (2. order) :-0.6027996E+00  (-0.7396175E-01)
 number of electron      11.0000000 magnetization       0.5922248      0.5930642      0.5920879
 augmentation part        1.6350410 magnetization       0.2100015      0.2103348      0.2098786

 Broyden mixing:
  rms(total) = 0.39680E+00    rms(broyden)= 0.39679E+00
  rms(prec ) = 0.42031E+00
  weight for this iteration     100.00

 eigenvalues of (default mixing * dielectric matrix)
  average eigenvalue GAMMA=   1.3195
  2.6540  0.7601  0.5443

 Free energy of the ion-electron system (eV)
  ---------------------------------------------------
  alpha Z        PSCENC =        15.03510525
  Ewald energy   TEWEN  =      -399.22983762
  -Hartree energ DENC   =      -266.87120565
  -exchange      EXHF   =         0.00000000
  -V(xc)+E(xc)   XCENC  =        48.04739760
  PAW double counting   =      3363.66389168    -3369.65769875
  entropy T*S    EENTRO =         0.00289899
  eigenvalues    EBANDS =       -98.83664412
  atomic energy  EATOM  =       696.92349690
  Solvation  Ediel_sol  =         0.00000000
  ---------------------------------------------------
  free energy    TOTEN  =       -10.92259572 eV

  energy without entropy =      -10.92549470  energy(sigma->0) =      -10.92356204


--------------------------------------------------------------------------------------------------------




--------------------------------------- Iteration      1(   9)  ---------------------------------------


    POTLOK:  cpu time      0.0556: real time      0.0559
    SETDIJ:  cpu time      0.0571: real time      0.0574
    EDDIAG:  cpu time      0.0214: real time      0.0215
  RMM-DIIS:  cpu time      0.0710: real time      0.0714
    ORTHCH:  cpu time      0.0028: real time      0.0028
       DOS:  cpu time      0.0001: real time      0.0001
    CHARGE:  cpu time      0.0607: real time      0.0611
    MIXING:  cpu time      0.0030: real time      0.0030
    --------------------------------------------
      LOOP:  cpu time      0.2719: real time      0.2733

 eigenvalue-minimisations  :   160
 total energy-change (2. order) :-0.8837593E-02  (-0.5232593E-02)
 number of electron      11.0000000 magnetization       0.5710837      0.5716581      0.5707168
 augmentation part        1.6413723 magnetization       0.1852463      0.1854156      0.1852021

 Broyden mixing:
  rms(total) = 0.98624E-01    rms(broyden)= 0.98624E-01
  rms(prec ) = 0.11815E+00
  weight for this iteration     100.00

 eigenvalues of (default mixing * dielectric matrix)
  average eigenvalue GAMMA=   1.1935
  2.6040  0.8518  0.7384  0.5797

 Free energy of the ion-electron system (eV)
  ---------------------------------------------------
  alpha Z        PSCENC =        15.03510525
  Ewald energy   TEWEN  =      -399.22983762
  -Hartree energ DENC   =      -266.22089116
  -exchange      EXHF   =         0.00000000
  -V(xc)+E(xc)   XCENC  =        47.95752618
  PAW double counting   =      3379.30239045    -3385.23222737
  entropy T*S    EENTRO =         0.00289899
  eigenvalues    EBANDS =       -99.46989494
  atomic energy  EATOM  =       696.92349690
  Solvation  Ediel_sol  =         0.00000000
  ---------------------------------------------------
  free energy    TOTEN  =       -10.93143331 eV

  energy without entropy =      -10.93433230  energy(sigma->0) =      -10.93239964


--------------------------------------------------------------------------------------------------------




--------------------------------------- Iteration      1(  10)  ---------------------------------------


    POTLOK:  cpu time      0.0555: real time      0.0557
    SETDIJ:  cpu time      0.0567: real time      0.0570
    EDDIAG:  cpu time      0.0214: real time      0.0215
  RMM-DIIS:  cpu time      0.0695: real time      0.0698
    ORTHCH:  cpu time      0.0028: real time      0.0028
       DOS:  cpu time      0.0001: real time      0.0001
    CHARGE:  cpu time      0.0612: real time      0.0615
    MIXING:  cpu time      0.0032: real time      0.0033
    --------------------------------------------
      LOOP:  cpu time      0.2705: real time      0.2718

 eigenvalue-minimisations  :   160
 total energy-change (2. order) : 0.2854948E-02  (-0.7459335E-03)
 number of electron      11.0000000 magnetization       0.5734799      0.5740222      0.5743272
 augmentation part        1.6467005 magnetization       0.1886115      0.1887320      0.1884755

 Broyden mixing:
  rms(total) = 0.43046E-01    rms(broyden)= 0.43046E-01
  rms(prec ) = 0.50298E-01
  weight for this iteration     100.00

 eigenvalues of (default mixing * dielectric matrix)
  average eigenvalue GAMMA=   1.1445
  2.5350  1.2294  0.7531  0.6025  0.6025

 Free energy of the ion-electron system (eV)
  ---------------------------------------------------
  alpha Z        PSCENC =        15.03510525
  Ewald energy   TEWEN  =      -399.22983762
  -Hartree energ DENC   =      -265.68767935
  -exchange      EXHF   =         0.00000000
  -V(xc)+E(xc)   XCENC  =        47.90208252
  PAW double counting   =      3338.15891853    -3344.04493862
  entropy T*S    EENTRO =         0.00289899
  eigenvalues    EBANDS =       -99.98862496
  atomic energy  EATOM  =       696.92349690
  Solvation  Ediel_sol  =         0.00000000
  ---------------------------------------------------
  free energy    TOTEN  =       -10.92857836 eV

  energy without entropy =      -10.93147735  energy(sigma->0) =      -10.92954469


--------------------------------------------------------------------------------------------------------




--------------------------------------- Iteration      1(  11)  ---------------------------------------


    POTLOK:  cpu time      0.0556: real time      0.0559
    SETDIJ:  cpu time      0.0576: real time      0.0578
    EDDIAG:  cpu time      0.0215: real time      0.0216
  RMM-DIIS:  cpu time      0.0710: real time      0.0714
    ORTHCH:  cpu time      0.0028: real time      0.0028
       DOS:  cpu time      0.0001: real time      0.0001
    CHARGE:  cpu time      0.0610: real time      0.0614
    MIXING:  cpu time      0.0031: real time      0.0031
    --------------------------------------------
      LOOP:  cpu time      0.2727: real time      0.2740

 eigenvalue-minimisations  :   160
 total energy-change (2. order) : 0.4496902E-03  (-0.3763853E-03)
 number of electron      11.0000000 magnetization       0.5781658      0.5786539      0.5771871
 augmentation part        1.6486216 magnetization       0.1928185      0.1931322      0.1932598

 Broyden mixing:
  rms(total) = 0.15721E-01    rms(broyden)= 0.15720E-01
  rms(prec ) = 0.17905E-01
  weight for this iteration     100.00

 eigenvalues of (default mixing * dielectric matrix)
  average eigenvalue GAMMA=   1.1076
  2.5003  1.3148  0.8615  0.7826  0.5764  0.6098

 Free energy of the ion-electron system (eV)
  ---------------------------------------------------
  alpha Z        PSCENC =        15.03510525
  Ewald energy   TEWEN  =      -399.22983762
  -Hartree energ DENC   =      -265.47864595
  -exchange      EXHF   =         0.00000000
  -V(xc)+E(xc)   XCENC  =        47.88223924
  PAW double counting   =      3317.61674951    -3323.48297130
  entropy T*S    EENTRO =         0.00289899
  eigenvalues    EBANDS =      -100.19716370
  atomic energy  EATOM  =       696.92349690
  Solvation  Ediel_sol  =         0.00000000
  ---------------------------------------------------
  free energy    TOTEN  =       -10.92812867 eV

  energy without entropy =      -10.93102766  energy(sigma->0) =      -10.92909500


--------------------------------------------------------------------------------------------------------




--------------------------------------- Iteration      1(  12)  ---------------------------------------


    POTLOK:  cpu time      0.0555: real time      0.0557
    SETDIJ:  cpu time      0.0579: real time      0.0582
    EDDIAG:  cpu time      0.0212: real time      0.0213
  RMM-DIIS:  cpu time      0.0718: real time      0.0722
    ORTHCH:  cpu time      0.0028: real time      0.0028
       DOS:  cpu time      0.0001: real time      0.0001
    CHARGE:  cpu time      0.0611: real time      0.0614
    MIXING:  cpu time      0.0032: real time      0.0032
    --------------------------------------------
      LOOP:  cpu time      0.2736: real time      0.2750

 eigenvalue-minimisations  :   160
 total energy-change (2. order) : 0.3980147E-04  (-0.3565625E-03)
 number of electron      11.0000000 magnetization       0.5778093      0.5782552      0.5783559
 augmentation part        1.6484032 magnetization       0.1936635      0.1935175      0.1922312

 Broyden mixing:
  rms(total) = 0.12673E-01    rms(broyden)= 0.12673E-01
  rms(prec ) = 0.13515E-01
  weight for this iteration     100.00

 eigenvalues of (default mixing * dielectric matrix)
  average eigenvalue GAMMA=   1.0308
  2.4917  1.2584  1.0816  0.7527  0.6097  0.5963  0.4251

 Free energy of the ion-electron system (eV)
  ---------------------------------------------------
  alpha Z        PSCENC =        15.03510525
  Ewald energy   TEWEN  =      -399.22983762
  -Hartree energ DENC   =      -265.47795038
  -exchange      EXHF   =         0.00000000
  -V(xc)+E(xc)   XCENC  =        47.88177685
  PAW double counting   =      3316.23720595    -3322.10427719
  entropy T*S    EENTRO =         0.00289899
  eigenvalues    EBANDS =      -100.19650763
  atomic energy  EATOM  =       696.92349690
  Solvation  Ediel_sol  =         0.00000000
  ---------------------------------------------------
  free energy    TOTEN  =       -10.92808887 eV

  energy without entropy =      -10.93098786  energy(sigma->0) =      -10.92905520


--------------------------------------------------------------------------------------------------------




--------------------------------------- Iteration      1(  13)  ---------------------------------------


    POTLOK:  cpu time      0.0558: real time      0.0560
    SETDIJ:  cpu time      0.0578: real time      0.0581
    EDDIAG:  cpu time      0.0214: real time      0.0215
  RMM-DIIS:  cpu time      0.0712: real time      0.0716
    ORTHCH:  cpu time      0.0028: real time      0.0028
       DOS:  cpu time      0.0001: real time      0.0001
    CHARGE:  cpu time      0.0615: real time      0.0618
    MIXING:  cpu time      0.0033: real time      0.0033
    --------------------------------------------
      LOOP:  cpu time      0.2739: real time      0.2753

 eigenvalue-minimisations  :   160
 total energy-change (2. order) :-0.9324931E-05  (-0.2979781E-03)
 number of electron      11.0000000 magnetization       0.5773199      0.5778617      0.5775885
 augmentation part        1.6484537 magnetization       0.1918028      0.1924061      0.1935674

 Broyden mixing:
  rms(total) = 0.95101E-02    rms(broyden)= 0.95100E-02
  rms(prec ) = 0.10012E-01
  weight for this iteration     100.00

 eigenvalues of (default mixing * dielectric matrix)
  average eigenvalue GAMMA=   1.0371
  2.4900  1.3498  1.3498  0.7896  0.7896  0.5877  0.5877  0.3530

 Free energy of the ion-electron system (eV)
  ---------------------------------------------------
  alpha Z        PSCENC =        15.03510525
  Ewald energy   TEWEN  =      -399.22983762
  -Hartree energ DENC   =      -265.47674606
  -exchange      EXHF   =         0.00000000
  -V(xc)+E(xc)   XCENC  =        47.88106156
  PAW double counting   =      3316.07344718    -3321.94069077
  entropy T*S    EENTRO =         0.00289899
  eigenvalues    EBANDS =      -100.19683363
  atomic energy  EATOM  =       696.92349690
  Solvation  Ediel_sol  =         0.00000000
  ---------------------------------------------------
  free energy    TOTEN  =       -10.92809819 eV

  energy without entropy =      -10.93099719  energy(sigma->0) =      -10.92906453


--------------------------------------------------------------------------------------------------------




--------------------------------------- Iteration      1(  14)  ---------------------------------------


    POTLOK:  cpu time      0.0555: real time      0.0557
    SETDIJ:  cpu time      0.0585: real time      0.0588
    EDDIAG:  cpu time      0.0214: real time      0.0215
  RMM-DIIS:  cpu time      0.0709: real time      0.0712
    ORTHCH:  cpu time      0.0028: real time      0.0028
       DOS:  cpu time      0.0001: real time      0.0002
    CHARGE:  cpu time      0.0613: real time      0.0615
    MIXING:  cpu time      0.0034: real time      0.0034
    --------------------------------------------
      LOOP:  cpu time      0.2738: real time      0.2751

 eigenvalue-minimisations  :   160
 total energy-change (2. order) :-0.4523367E-05  (-0.1019760E-03)
 number of electron      11.0000000 magnetization       0.5773566      0.5774972      0.5771454
 augmentation part        1.6485161 magnetization       0.1925099      0.1922540      0.1921532

 Broyden mixing:
  rms(total) = 0.75778E-02    rms(broyden)= 0.75777E-02
  rms(prec ) = 0.77535E-02
  weight for this iteration     100.00

 eigenvalues of (default mixing * dielectric matrix)
  average eigenvalue GAMMA=   1.0578
  2.4883  1.7291  1.7291  0.8613  0.8118  0.5929  0.5929  0.4100  0.3049

 Free energy of the ion-electron system (eV)
  ---------------------------------------------------
  alpha Z        PSCENC =        15.03510525
  Ewald energy   TEWEN  =      -399.22983762
  -Hartree energ DENC   =      -265.47340842
  -exchange      EXHF   =         0.00000000
  -V(xc)+E(xc)   XCENC  =        47.88020464
  PAW double counting   =      3315.36255283    -3321.22961960
  entropy T*S    EENTRO =         0.00289899
  eigenvalues    EBANDS =      -100.19949570
  atomic energy  EATOM  =       696.92349690
  Solvation  Ediel_sol  =         0.00000000
  ---------------------------------------------------
  free energy    TOTEN  =       -10.92810272 eV

  energy without entropy =      -10.93100171  energy(sigma->0) =      -10.92906905


--------------------------------------------------------------------------------------------------------




--------------------------------------- Iteration      1(  15)  ---------------------------------------


    POTLOK:  cpu time      0.0555: real time      0.0558
    SETDIJ:  cpu time      0.0574: real time      0.0577
    EDDIAG:  cpu time      0.0212: real time      0.0213
  RMM-DIIS:  cpu time      0.0709: real time      0.0713
    ORTHCH:  cpu time      0.0028: real time      0.0028
       DOS:  cpu time      0.0001: real time      0.0001
    CHARGE:  cpu time      0.0608: real time      0.0613
    MIXING:  cpu time      0.0035: real time      0.0035
    --------------------------------------------
      LOOP:  cpu time      0.2723: real time      0.2737

 eigenvalue-minimisations  :   160
 total energy-change (2. order) :-0.1912197E-04  (-0.5849506E-04)
 number of electron      11.0000000 magnetization       0.5772360      0.5774759      0.5770945
 augmentation part        1.6485233 magnetization       0.1922574      0.1924719      0.1919940

 Broyden mixing:
  rms(total) = 0.38061E-02    rms(broyden)= 0.38060E-02
  rms(prec ) = 0.39372E-02
  weight for this iteration     100.00

 eigenvalues of (default mixing * dielectric matrix)
  average eigenvalue GAMMA=   1.0410
  2.4796  1.9276  1.9276  0.9151  0.7901  0.6084  0.6084  0.5444  0.3199  0.2885

 Free energy of the ion-electron system (eV)
  ---------------------------------------------------
  alpha Z        PSCENC =        15.03510525
  Ewald energy   TEWEN  =      -399.22983762
  -Hartree energ DENC   =      -265.46993836
  -exchange      EXHF   =         0.00000000
  -V(xc)+E(xc)   XCENC  =        47.87967171
  PAW double counting   =      3314.68896484    -3320.55573116
  entropy T*S    EENTRO =         0.00289899
  eigenvalues    EBANDS =      -100.20275241
  atomic energy  EATOM  =       696.92349690
  Solvation  Ediel_sol  =         0.00000000
  ---------------------------------------------------
  free energy    TOTEN  =       -10.92812184 eV

  energy without entropy =      -10.93102083  energy(sigma->0) =      -10.92908817


--------------------------------------------------------------------------------------------------------




--------------------------------------- Iteration      1(  16)  ---------------------------------------


    POTLOK:  cpu time      0.0553: real time      0.0555
    SETDIJ:  cpu time      0.0572: real time      0.0577
    EDDIAG:  cpu time      0.0215: real time      0.0216
  RMM-DIIS:  cpu time      0.0720: real time      0.0724
    ORTHCH:  cpu time      0.0028: real time      0.0028
       DOS:  cpu time      0.0001: real time      0.0001
    CHARGE:  cpu time      0.0615: real time      0.0618
    MIXING:  cpu time      0.0036: real time      0.0036
    --------------------------------------------
      LOOP:  cpu time      0.2740: real time      0.2755

 eigenvalue-minimisations  :   160
 total energy-change (2. order) :-0.1986202E-04  (-0.1817652E-04)
 number of electron      11.0000000 magnetization       0.5772185      0.5774112      0.5772257
 augmentation part        1.6485154 magnetization       0.1923497      0.1922942      0.1921568

 Broyden mixing:
  rms(total) = 0.17287E-02    rms(broyden)= 0.17286E-02
  rms(prec ) = 0.18459E-02
  weight for this iteration     100.00

 eigenvalues of (default mixing * dielectric matrix)
  average eigenvalue GAMMA=   0.9916
  2.4645  1.9756  1.9756  0.9324  0.7815  0.6345  0.6345  0.5657  0.3426  0.3426
  0.2583

 Free energy of the ion-electron system (eV)
  ---------------------------------------------------
  alpha Z        PSCENC =        15.03510525
  Ewald energy   TEWEN  =      -399.22983762
  -Hartree energ DENC   =      -265.46635496
  -exchange      EXHF   =         0.00000000
  -V(xc)+E(xc)   XCENC  =        47.87935571
  PAW double counting   =      3314.18796779    -3320.05443241
  entropy T*S    EENTRO =         0.00289899
  eigenvalues    EBANDS =      -100.20634136
  atomic energy  EATOM  =       696.92349690
  Solvation  Ediel_sol  =         0.00000000
  ---------------------------------------------------
  free energy    TOTEN  =       -10.92814170 eV

  energy without entropy =      -10.93104069  energy(sigma->0) =      -10.92910803


--------------------------------------------------------------------------------------------------------




--------------------------------------- Iteration      1(  17)  ---------------------------------------


    POTLOK:  cpu time      0.0555: real time      0.0558
    SETDIJ:  cpu time      0.0571: real time      0.0574
    EDDIAG:  cpu time      0.0215: real time      0.0216
  RMM-DIIS:  cpu time      0.0713: real time      0.0716
    ORTHCH:  cpu time      0.0028: real time      0.0028
       DOS:  cpu time      0.0001: real time      0.0001
    CHARGE:  cpu time      0.0622: real time      0.0625
    MIXING:  cpu time      0.0036: real time      0.0036
    --------------------------------------------
      LOOP:  cpu time      0.2742: real time      0.2755

 eigenvalue-minimisations  :   160
 total energy-change (2. order) :-0.1408327E-04  (-0.1715771E-04)
 number of electron      11.0000000 magnetization       0.5773940      0.5773218      0.5772466
 augmentation part        1.6485178 magnetization       0.1921972      0.1923286      0.1923997

 Broyden mixing:
  rms(total) = 0.10763E-02    rms(broyden)= 0.10762E-02
  rms(prec ) = 0.11957E-02
  weight for this iteration     100.00

 eigenvalues of (default mixing * dielectric matrix)
  average eigenvalue GAMMA=   0.9589
  2.4406  2.0435  1.9318  0.9501  0.7566  0.6832  0.6832  0.5867  0.5610  0.3048
  0.3048  0.2604

 Free energy of the ion-electron system (eV)
  ---------------------------------------------------
  alpha Z        PSCENC =        15.03510525
  Ewald energy   TEWEN  =      -399.22983762
  -Hartree energ DENC   =      -265.46361018
  -exchange      EXHF   =         0.00000000
  -V(xc)+E(xc)   XCENC  =        47.87918104
  PAW double counting   =      3314.02603109    -3319.89227983
  entropy T*S    EENTRO =         0.00289899
  eigenvalues    EBANDS =      -100.20914143
  atomic energy  EATOM  =       696.92349690
  Solvation  Ediel_sol  =         0.00000000
  ---------------------------------------------------
  free energy    TOTEN  =       -10.92815579 eV

  energy without entropy =      -10.93105478  energy(sigma->0) =      -10.92912212


--------------------------------------------------------------------------------------------------------




--------------------------------------- Iteration      1(  18)  ---------------------------------------


    POTLOK:  cpu time      0.0556: real time      0.0558
    SETDIJ:  cpu time      0.0576: real time      0.0579
    EDDIAG:  cpu time      0.0214: real time      0.0215
  RMM-DIIS:  cpu time      0.0720: real time      0.0723
    ORTHCH:  cpu time      0.0028: real time      0.0028
       DOS:  cpu time      0.0001: real time      0.0001
    CHARGE:  cpu time      0.0620: real time      0.0622
    MIXING:  cpu time      0.0038: real time      0.0039
    --------------------------------------------
      LOOP:  cpu time      0.2753: real time      0.2766

 eigenvalue-minimisations  :   160
 total energy-change (2. order) : 0.3138462E-05  (-0.1786123E-04)
 number of electron      11.0000000 magnetization       0.5773233      0.5773926      0.5772685
 augmentation part        1.6485281 magnetization       0.1925515      0.1921443      0.1922625

 Broyden mixing:
  rms(total) = 0.11266E-02    rms(broyden)= 0.11266E-02
  rms(prec ) = 0.11729E-02
  weight for this iteration     100.00

 eigenvalues of (default mixing * dielectric matrix)
  average eigenvalue GAMMA=   0.9355
  2.4071  2.2006  1.7946  1.1017  0.8645  0.8116  0.6313  0.6313  0.5644  0.3230
  0.3015  0.3015  0.2278

 Free energy of the ion-electron system (eV)
  ---------------------------------------------------
  alpha Z        PSCENC =        15.03510525
  Ewald energy   TEWEN  =      -399.22983762
  -Hartree energ DENC   =      -265.45972902
  -exchange      EXHF   =         0.00000000
  -V(xc)+E(xc)   XCENC  =        47.87903065
  PAW double counting   =      3313.96330402    -3319.82924705
  entropy T*S    EENTRO =         0.00289899
  eigenvalues    EBANDS =      -100.21317477
  atomic energy  EATOM  =       696.92349690
  Solvation  Ediel_sol  =         0.00000000
  ---------------------------------------------------
  free energy    TOTEN  =       -10.92815265 eV

  energy without entropy =      -10.93105164  energy(sigma->0) =      -10.92911898


--------------------------------------------------------------------------------------------------------




--------------------------------------- Iteration      1(  19)  ---------------------------------------


    POTLOK:  cpu time      0.0553: real time      0.0556
    SETDIJ:  cpu time      0.0567: real time      0.0569
    EDDIAG:  cpu time      0.0217: real time      0.0218
  RMM-DIIS:  cpu time      0.0715: real time      0.0719
    ORTHCH:  cpu time      0.0028: real time      0.0028
       DOS:  cpu time      0.0001: real time      0.0001
    CHARGE:  cpu time      0.0609: real time      0.0612
    MIXING:  cpu time      0.0037: real time      0.0037
    --------------------------------------------
      LOOP:  cpu time      0.2728: real time      0.2741

 eigenvalue-minimisations  :   160
 total energy-change (2. order) :-0.2417482E-05  (-0.1062964E-04)
 number of electron      11.0000000 magnetization       0.5773047      0.5772926      0.5773503
 augmentation part        1.6485302 magnetization       0.1922573      0.1923929      0.1922714

 Broyden mixing:
  rms(total) = 0.63392E-03    rms(broyden)= 0.63390E-03
  rms(prec ) = 0.66932E-03
  weight for this iteration     100.00

 eigenvalues of (default mixing * dielectric matrix)
  average eigenvalue GAMMA=   0.9234
  2.4057  2.1990  1.7192  1.4620  0.8997  0.7858  0.6320  0.6320  0.5649  0.4941
  0.3301  0.3301  0.2603  0.2126

 Free energy of the ion-electron system (eV)
  ---------------------------------------------------
  alpha Z        PSCENC =        15.03510525
  Ewald energy   TEWEN  =      -399.22983762
  -Hartree energ DENC   =      -265.45788955
  -exchange      EXHF   =         0.00000000
  -V(xc)+E(xc)   XCENC  =        47.87894618
  PAW double counting   =      3313.99535458    -3319.86114236
  entropy T*S    EENTRO =         0.00289899
  eigenvalues    EBANDS =      -100.21508744
  atomic energy  EATOM  =       696.92349690
  Solvation  Ediel_sol  =         0.00000000
  ---------------------------------------------------
  free energy    TOTEN  =       -10.92815506 eV

  energy without entropy =      -10.93105405  energy(sigma->0) =      -10.92912139


--------------------------------------------------------------------------------------------------------




--------------------------------------- Iteration      1(  20)  ---------------------------------------


    POTLOK:  cpu time      0.0554: real time      0.0556
    SETDIJ:  cpu time      0.0580: real time      0.0582
    EDDIAG:  cpu time      0.0213: real time      0.0214
  RMM-DIIS:  cpu time      0.0717: real time      0.0720
    ORTHCH:  cpu time      0.0027: real time      0.0027
       DOS:  cpu time      0.0001: real time      0.0001
    CHARGE:  cpu time      0.0617: real time      0.0620
    MIXING:  cpu time      0.0039: real time      0.0039
    --------------------------------------------
      LOOP:  cpu time      0.2747: real time      0.2760

 eigenvalue-minimisations  :   160
 total energy-change (2. order) :-0.7207478E-05  (-0.6580029E-05)
 number of electron      11.0000000 magnetization       0.5772191      0.5772832      0.5774206
 augmentation part        1.6485285 magnetization       0.1923598      0.1922379      0.1923039

 Broyden mixing:
  rms(total) = 0.55036E-03    rms(broyden)= 0.55034E-03
  rms(prec ) = 0.56333E-03
  weight for this iteration     100.00

 eigenvalues of (default mixing * dielectric matrix)
  average eigenvalue GAMMA=   0.9026
  2.4340  2.0807  1.7403  1.7403  0.9067  0.7623  0.6814  0.6200  0.6200  0.5654
  0.3238  0.3238  0.2806  0.2373  0.2230

 Free energy of the ion-electron system (eV)
  ---------------------------------------------------
  alpha Z        PSCENC =        15.03510525
  Ewald energy   TEWEN  =      -399.22983762
  -Hartree energ DENC   =      -265.45698066
  -exchange      EXHF   =         0.00000000
  -V(xc)+E(xc)   XCENC  =        47.87892814
  PAW double counting   =      3314.10712207    -3319.97280710
  entropy T*S    EENTRO =         0.00289899
  eigenvalues    EBANDS =      -100.21608825
  atomic energy  EATOM  =       696.92349690
  Solvation  Ediel_sol  =         0.00000000
  ---------------------------------------------------
  free energy    TOTEN  =       -10.92816227 eV

  energy without entropy =      -10.93106126  energy(sigma->0) =      -10.92912860


--------------------------------------------------------------------------------------------------------




--------------------------------------- Iteration      1(  21)  ---------------------------------------


    POTLOK:  cpu time      0.0552: real time      0.0554
    SETDIJ:  cpu time      0.0577: real time      0.0580
    EDDIAG:  cpu time      0.0216: real time      0.0216
  RMM-DIIS:  cpu time      0.0720: real time      0.0724
    ORTHCH:  cpu time      0.0027: real time      0.0027
       DOS:  cpu time      0.0001: real time      0.0001
    CHARGE:  cpu time      0.0621: real time      0.0624
    MIXING:  cpu time      0.0040: real time      0.0040
    --------------------------------------------
      LOOP:  cpu time      0.2753: real time      0.2767

 eigenvalue-minimisations  :   160
 total energy-change (2. order) :-0.3930547E-05  (-0.3744780E-05)
 number of electron      11.0000000 magnetization       0.5772048      0.5772474      0.5774553
 augmentation part        1.6485260 magnetization       0.1922205      0.1923291      0.1923339

 Broyden mixing:
  rms(total) = 0.43751E-03    rms(broyden)= 0.43750E-03
  rms(prec ) = 0.44558E-03
  weight for this iteration     100.00

 eigenvalues of (default mixing * dielectric matrix)
  average eigenvalue GAMMA=   0.8790
  2.4582  1.9690  1.9690  1.6739  0.8980  0.7813  0.7813  0.6255  0.6255  0.5645
  0.3567  0.3425  0.3425  0.2585  0.2093  0.2093

 Free energy of the ion-electron system (eV)
  ---------------------------------------------------
  alpha Z        PSCENC =        15.03510525
  Ewald energy   TEWEN  =      -399.22983762
  -Hartree energ DENC   =      -265.45689189
  -exchange      EXHF   =         0.00000000
  -V(xc)+E(xc)   XCENC  =        47.87892901
  PAW double counting   =      3314.17642196    -3320.04207414
  entropy T*S    EENTRO =         0.00289899
  eigenvalues    EBANDS =      -100.21621467
  atomic energy  EATOM  =       696.92349690
  Solvation  Ediel_sol  =         0.00000000
  ---------------------------------------------------
  free energy    TOTEN  =       -10.92816620 eV

  energy without entropy =      -10.93106519  energy(sigma->0) =      -10.92913253


--------------------------------------------------------------------------------------------------------




--------------------------------------- Iteration      1(  22)  ---------------------------------------


    POTLOK:  cpu time      0.0553: real time      0.0556
    SETDIJ:  cpu time      0.0575: real time      0.0577
    EDDIAG:  cpu time      0.0215: real time      0.0216
  RMM-DIIS:  cpu time      0.0723: real time      0.0727
    ORTHCH:  cpu time      0.0028: real time      0.0028
       DOS:  cpu time      0.0001: real time      0.0001
    CHARGE:  cpu time      0.0625: real time      0.0629
    MIXING:  cpu time      0.0041: real time      0.0041
    --------------------------------------------
      LOOP:  cpu time      0.2762: real time      0.2775

 eigenvalue-minimisations  :   160
 total energy-change (2. order) : 0.4597160E-05  (-0.3494528E-05)
 number of electron      11.0000000 magnetization       0.5771689      0.5772352      0.5774962
 augmentation part        1.6485246 magnetization       0.1922972      0.1922221      0.1923569

 Broyden mixing:
  rms(total) = 0.26605E-03    rms(broyden)= 0.26604E-03
  rms(prec ) = 0.27366E-03
  weight for this iteration     100.00

 eigenvalues of (default mixing * dielectric matrix)
  average eigenvalue GAMMA=   0.8879
  2.5036  2.1449  2.1449  1.6988  0.9010  0.8679  0.8679  0.6255  0.6255  0.5635
  0.4370  0.4070  0.3049  0.3049  0.2704  0.2388  0.1879

 Free energy of the ion-electron system (eV)
  ---------------------------------------------------
  alpha Z        PSCENC =        15.03510525
  Ewald energy   TEWEN  =      -399.22983762
  -Hartree energ DENC   =      -265.45699510
  -exchange      EXHF   =         0.00000000
  -V(xc)+E(xc)   XCENC  =        47.87895179
  PAW double counting   =      3314.21694814    -3320.08258362
  entropy T*S    EENTRO =         0.00289899
  eigenvalues    EBANDS =      -100.21614633
  atomic energy  EATOM  =       696.92349690
  Solvation  Ediel_sol  =         0.00000000
  ---------------------------------------------------
  free energy    TOTEN  =       -10.92816161 eV

  energy without entropy =      -10.93106060  energy(sigma->0) =      -10.92912794


--------------------------------------------------------------------------------------------------------




--------------------------------------- Iteration      1(  23)  ---------------------------------------


    POTLOK:  cpu time      0.0553: real time      0.0556
    SETDIJ:  cpu time      0.0574: real time      0.0578
    EDDIAG:  cpu time      0.0218: real time      0.0219
  RMM-DIIS:  cpu time      0.0721: real time      0.0725
    ORTHCH:  cpu time      0.0028: real time      0.0028
       DOS:  cpu time      0.0001: real time      0.0001
    CHARGE:  cpu time      0.0625: real time      0.0628
    MIXING:  cpu time      0.0043: real time      0.0043
    --------------------------------------------
      LOOP:  cpu time      0.2763: real time      0.2778

 eigenvalue-minimisations  :   160
 total energy-change (2. order) :-0.6687670E-05  (-0.4611281E-05)
 number of electron      11.0000000 magnetization       0.5771461      0.5771972      0.5775567
 augmentation part        1.6485236 magnetization       0.1922386      0.1923325      0.1923047

 Broyden mixing:
  rms(total) = 0.23377E-03    rms(broyden)= 0.23377E-03
  rms(prec ) = 0.23736E-03
  weight for this iteration     100.00

 eigenvalues of (default mixing * dielectric matrix)
  average eigenvalue GAMMA=   0.8747
  2.5406  2.2617  2.2617  1.6947  1.0458  0.8867  0.8236  0.6208  0.6208  0.5552
  0.4982  0.3677  0.3323  0.3323  0.2722  0.2241  0.2241  0.1827

 Free energy of the ion-electron system (eV)
  ---------------------------------------------------
  alpha Z        PSCENC =        15.03510525
  Ewald energy   TEWEN  =      -399.22983762
  -Hartree energ DENC   =      -265.45708257
  -exchange      EXHF   =         0.00000000
  -V(xc)+E(xc)   XCENC  =        47.87895107
  PAW double counting   =      3314.25041786    -3320.11602689
  entropy T*S    EENTRO =         0.00289899
  eigenvalues    EBANDS =      -100.21609129
  atomic energy  EATOM  =       696.92349690
  Solvation  Ediel_sol  =         0.00000000
  ---------------------------------------------------
  free energy    TOTEN  =       -10.92816829 eV

  energy without entropy =      -10.93106728  energy(sigma->0) =      -10.92913462


--------------------------------------------------------------------------------------------------------




--------------------------------------- Iteration      1(  24)  ---------------------------------------


    POTLOK:  cpu time      0.0556: real time      0.0559
    SETDIJ:  cpu time      0.0576: real time      0.0579
    EDDIAG:  cpu time      0.0216: real time      0.0217
  RMM-DIIS:  cpu time      0.0724: real time      0.0728
    ORTHCH:  cpu time      0.0027: real time      0.0027
       DOS:  cpu time      0.0001: real time      0.0001
    CHARGE:  cpu time      0.0615: real time      0.0619
    MIXING:  cpu time      0.0043: real time      0.0043
    --------------------------------------------
      LOOP:  cpu time      0.2759: real time      0.2774

 eigenvalue-minimisations  :   160
 total energy-change (2. order) :-0.6371779E-06  (-0.4090905E-05)
 number of electron      11.0000000 magnetization       0.5771201      0.5771749      0.5776068
 augmentation part        1.6485230 magnetization       0.1922350      0.1922055      0.1924360

 Broyden mixing:
  rms(total) = 0.21727E-03    rms(broyden)= 0.21726E-03
  rms(prec ) = 0.21958E-03
  weight for this iteration     100.00

 eigenvalues of (default mixing * dielectric matrix)
  average eigenvalue GAMMA=   0.8698
  2.5902  2.3638  2.3638  1.6898  1.2197  0.8927  0.8058  0.6158  0.6158  0.5869
  0.5869  0.4118  0.3482  0.3482  0.2636  0.2366  0.2366  0.1924  0.1579

 Free energy of the ion-electron system (eV)
  ---------------------------------------------------
  alpha Z        PSCENC =        15.03510525
  Ewald energy   TEWEN  =      -399.22983762
  -Hartree energ DENC   =      -265.45714761
  -exchange      EXHF   =         0.00000000
  -V(xc)+E(xc)   XCENC  =        47.87895492
  PAW double counting   =      3314.25982360    -3320.12542258
[...]
  -exchange      EXHF   =         0.00000000
  -V(xc)+E(xc)   XCENC  =        47.54526043
  PAW double counting   =      2884.95833285    -2890.62231142
  entropy T*S    EENTRO =         0.00289898
  eigenvalues    EBANDS =       -97.07310465
  atomic energy  EATOM  =       696.92349690
  Solvation  Ediel_sol  =         0.00000000
  ---------------------------------------------------
  free energy    TOTEN  =       -11.03563161 eV

  energy without entropy =      -11.03853059  energy(sigma->0) =      -11.03659794


--------------------------------------------------------------------------------------------------------




 average (electrostatic) potential at core
  the test charge radii are     0.9051  0.8742
  (the norm of the test charge is              1.0000)
       1 -81.7693       2 -86.8482



 E-fermi :   1.4352     XC(G=0):  -9.0359     alpha+bet : -7.2825

 val. band max:        1.3511884149   @ k =   0.2500   0.2500   0.0000
 cond. band min:       2.3364717035   @ k =   0.2500  -0.2500   0.0000
 fundamental gap:      0.9852832886
 Fermi energy:         1.4352012580

 k-point     1 :       0.2500    0.2500    0.0000
  band No.  band energies     occupation 
      1     -23.7684      1.00000
      2     -23.2462      1.00000
      3     -10.8455      1.00000
      4     -10.0034      1.00000
      5      -6.7421      1.00000
      6      -6.3616      1.00000
      7      -5.6478      1.00000
      8      -4.3415      1.00000
      9      -3.9603      1.00000
     10      -3.5074      1.00000
     11       1.3512      0.99961
     12       2.3365     -0.00000
     13       2.9001     -0.00000
     14       3.2614     -0.00000
     15      11.5399      0.00000
     16      12.0622      0.00000
     17      12.9184      0.00000
     18      13.5411      0.00000
     19      15.7397      0.00000
     20      15.9658      0.00000

 k-point     2 :      -0.2500   -0.2500    0.0000
  band No.  band energies     occupation 
      1     -23.7686      1.00000
      2     -23.2459      1.00000
      3     -10.8452      1.00000
      4     -10.0039      1.00000
      5      -6.7400      1.00000
      6      -6.3645      1.00000
      7      -5.6464      1.00000
      8      -4.3417      1.00000
      9      -3.9641      1.00000
     10      -3.5037      1.00000
     11       1.3508      1.00039
     12       2.3371     -0.00000
     13       2.8994     -0.00000
     14       3.2617     -0.00000
     15      11.5404      0.00000
     16      12.0618      0.00000
     17      12.9183      0.00000
     18      13.5409      0.00000
     19      15.7385      0.00000
     20      15.9672      0.00000

 k-point     3 :       0.2500   -0.2500    0.0000
  band No.  band energies     occupation 
      1     -23.7684      1.00000
      2     -23.2462      1.00000
      3     -10.8455      1.00000
      4     -10.0034      1.00000
      5      -6.7434      1.00000
      6      -6.3610      1.00000
      7      -5.6466      1.00000
      8      -4.3416      1.00000
      9      -3.9599      1.00000
     10      -3.5083      1.00000
     11       1.3508      1.00036
     12       2.3365     -0.00000
     13       2.9002     -0.00000
     14       3.2617     -0.00000
     15      11.5404      0.00000
     16      12.0619      0.00000
     17      12.9192      0.00000
     18      13.5398      0.00000
     19      15.7382      0.00000
     20      15.9676      0.00000

 k-point     4 :      -0.2500    0.2500    0.0000
  band No.  band energies     occupation 
      1     -23.7686      1.00000
      2     -23.2459      1.00000
      3     -10.8452      1.00000
      4     -10.0039      1.00000
      5      -6.7387      1.00000
      6      -6.3652      1.00000
      7      -5.6475      1.00000
      8      -4.3416      1.00000
      9      -3.9646      1.00000
     10      -3.5029      1.00000
     11       1.3512      0.99964
     12       2.3371     -0.00000
     13       2.8994     -0.00000
     14       3.2614     -0.00000
     15      11.5399      0.00000
     16      12.0621      0.00000
     17      12.9175      0.00000
     18      13.5422      0.00000
     19      15.7400      0.00000
     20      15.9654      0.00000


--------------------------------------------------------------------------------------------------------


 soft charge-density along one line, spin component           1
         0         1         2         3         4         5         6         7         8         9
 total charge-density along one line

 soft charge-density along one line, spin component           2
         0         1         2         3         4         5         6         7         8         9
 total charge-density along one line

 soft charge-density along one line, spin component           3
         0         1         2         3         4         5         6         7         8         9
 total charge-density along one line

 soft charge-density along one line, spin component           4
         0         1         2         3         4         5         6         7         8         9
 total charge-density along one line

 pseudopotential strength for first ion, spin component:           1
 25.363   0.000  25.901   0.000   0.000   0.000   0.185   0.000   0.000   0.000   0.000   0.000   0.224   0.000   0.000   0.000
 25.901   0.000  26.451   0.000   0.000   0.000   0.189   0.000   0.000   0.000   0.000   0.000   0.230   0.000   0.000   0.000
  0.000   0.000   0.000   0.000  -4.699  -0.000   0.000   0.000  -0.000   0.006  -5.225  -0.000   0.000   0.000  -0.000   0.008
  0.185   0.000   0.189   0.000   0.000   0.000  -4.859  -0.000   0.000   0.000   0.000   0.000  -5.413  -0.000   0.000   0.000
  0.000   0.000   0.000   0.000  -0.000  -0.006   0.000   0.000  -4.743   0.000  -0.000  -0.008   0.000   0.000  -5.274   0.000
  0.000   0.000   0.000   0.000  -5.225  -0.000   0.000   0.000  -0.000   0.008  -5.772  -0.000   0.000   0.000  -0.000   0.009
  0.224   0.000   0.230   0.000   0.000   0.000  -5.413  -0.000   0.000   0.000   0.000   0.000  -5.993  -0.000   0.000   0.000
  0.000   0.000   0.000   0.000  -0.000  -0.008   0.000   0.000  -5.274   0.000  -0.000  -0.009   0.000   0.000  -5.829   0.000
 pseudopotential strength for first ion, spin component:           2
  0.093  -0.093   0.095  -0.095  -0.000   0.000  -0.000   0.000  -0.000  -0.000  -0.000   0.000  -0.000   0.000  -0.000  -0.000
  0.095  -0.095   0.097  -0.097  -0.000   0.000  -0.000   0.000  -0.000  -0.000  -0.000   0.000  -0.000   0.000  -0.000  -0.000
 -0.000   0.000  -0.000   0.000  -0.176   0.177   0.000  -0.006  -0.000  -0.000  -0.210   0.210   0.000  -0.008  -0.000  -0.000
 -0.000   0.000  -0.000   0.000   0.000   0.006  -0.034   0.034  -0.006  -0.000   0.000   0.008  -0.040   0.040  -0.008  -0.000
 -0.000  -0.000  -0.000  -0.000  -0.000  -0.000   0.006  -0.000  -0.043   0.043  -0.000  -0.000   0.008  -0.000  -0.051   0.051
 -0.000   0.000  -0.000   0.000  -0.210   0.210   0.000  -0.008  -0.000  -0.000  -0.249   0.250   0.000  -0.009  -0.001  -0.001
 -0.000   0.000  -0.000   0.000   0.000   0.008  -0.040   0.040  -0.008  -0.000   0.000   0.009  -0.048   0.048  -0.009  -0.000
 -0.000  -0.000  -0.000  -0.000  -0.000  -0.000   0.008  -0.000  -0.051   0.051  -0.001  -0.001   0.009  -0.000  -0.060   0.061
 pseudopotential strength for first ion, spin component:           3
  0.093   0.093   0.095   0.095  -0.000  -0.000  -0.000  -0.000  -0.000   0.000  -0.000  -0.000  -0.000  -0.000  -0.000   0.000
  0.095   0.095   0.097   0.097  -0.000  -0.000  -0.000  -0.000  -0.000   0.000  -0.000  -0.000  -0.000  -0.000  -0.000   0.000
 -0.000  -0.000  -0.000  -0.000  -0.176  -0.177   0.000  -0.006  -0.000   0.000  -0.210  -0.210   0.000  -0.008  -0.000   0.000
 -0.000  -0.000  -0.000  -0.000   0.000   0.006  -0.034  -0.034   0.006   0.000   0.000   0.008  -0.040  -0.040   0.008   0.000
 -0.000   0.000  -0.000   0.000  -0.000   0.000  -0.006   0.000  -0.043  -0.043  -0.000   0.000  -0.008   0.000  -0.051  -0.051
 -0.000  -0.000  -0.000  -0.000  -0.210  -0.210   0.000  -0.008  -0.000   0.000  -0.249  -0.250   0.000  -0.009  -0.001   0.001
 -0.000  -0.000  -0.000  -0.000   0.000   0.008  -0.040  -0.040   0.008   0.000   0.000   0.009  -0.048  -0.048   0.009   0.000
 -0.000   0.000  -0.000   0.000  -0.000   0.000  -0.008   0.000  -0.051  -0.051  -0.001   0.001  -0.009   0.000  -0.060  -0.061
 pseudopotential strength for first ion, spin component:           4
 25.176  -0.000  25.710  -0.000  -0.000  -0.000   0.185  -0.000  -0.000  -0.000  -0.000  -0.000   0.225  -0.000  -0.000  -0.000
 25.710  -0.000  26.256  -0.000  -0.000  -0.000   0.189  -0.000  -0.000  -0.000  -0.000  -0.000   0.230  -0.000  -0.000  -0.000
 -0.000  -0.000  -0.000  -0.000  -4.343   0.000  -0.000  -0.000   0.000  -0.006  -4.801   0.000  -0.000  -0.000   0.000  -0.008
  0.185  -0.000   0.189  -0.000  -0.000  -0.000  -4.792   0.000  -0.000  -0.000  -0.000  -0.000  -5.332   0.000  -0.000  -0.000
 -0.000  -0.000  -0.000  -0.000   0.000   0.006  -0.000  -0.000  -4.657  -0.000   0.000   0.008  -0.000  -0.000  -5.172  -0.000
 -0.000  -0.000  -0.000  -0.000  -4.801   0.000  -0.000  -0.000   0.000  -0.008  -5.270   0.000  -0.000  -0.000   0.000  -0.009
  0.225  -0.000   0.230  -0.000  -0.000  -0.000  -5.332   0.000  -0.000  -0.000  -0.000  -0.000  -5.897   0.000  -0.000  -0.000
 -0.000  -0.000  -0.000  -0.000   0.000   0.008  -0.000  -0.000  -5.172  -0.000   0.000   0.009  -0.000  -0.000  -5.707  -0.000
 total augmentation occupancy for first ion, spin component:           1
 33.913 -32.323   0.000  25.030   0.000  -0.000 -18.158  -0.000
-32.323  32.590  -0.000 -25.147  -0.000   0.000  18.490   0.000
  0.000  -0.000   6.195  -0.000  -0.000  -3.795   0.000   0.000
 25.030 -25.147  -0.000  27.297  -0.000   0.000 -19.201   0.000
  0.000  -0.000  -0.000  -0.000   7.498   0.000   0.000  -4.484
 -0.000   0.000  -3.795   0.000   0.000   2.999  -0.000  -0.000
-18.158  18.490   0.000 -19.201   0.000  -0.000  13.750  -0.000
 -0.000   0.000   0.000   0.000  -4.484  -0.000  -0.000   2.753
 total augmentation occupancy for first ion, spin component:           2
  0.493  -0.275   0.000  -0.130  -0.000  -0.000   0.130   0.000
 -0.275   0.082  -0.000   0.157   0.000   0.000  -0.151  -0.000
  0.000  -0.000  -0.327   0.000   0.000   0.103  -0.000  -0.002
 -0.130   0.157   0.000  -0.247   0.000  -0.000   0.192  -0.000
 -0.000   0.000   0.000   0.000  -0.166  -0.004  -0.000   0.132
 -0.000   0.000   0.103  -0.000  -0.004   0.381   0.000   0.008
  0.130  -0.151  -0.000   0.192  -0.000   0.000  -0.145   0.000
  0.000  -0.000  -0.002  -0.000   0.132   0.008   0.000  -0.094
 total augmentation occupancy for first ion, spin component:           3
  0.494  -0.276  -0.001  -0.131  -0.000  -0.000   0.130   0.000
 -0.276   0.082   0.001   0.158   0.000   0.000  -0.152  -0.000
 -0.001   0.001  -0.328  -0.002  -0.000   0.103   0.002   0.002
 -0.131   0.158  -0.002  -0.247  -0.000   0.005   0.193   0.000
 -0.000   0.000  -0.000  -0.000  -0.168   0.004   0.000   0.133
 -0.000   0.000   0.103   0.005   0.004   0.383  -0.004  -0.008
  0.130  -0.152   0.002   0.193   0.000  -0.004  -0.146  -0.000
  0.000  -0.000   0.002   0.000   0.133  -0.008  -0.000  -0.095
 total augmentation occupancy for first ion, spin component:           4
  0.500  -0.279   0.000  -0.131   0.000   0.000   0.130  -0.000
 -0.279   0.085  -0.000   0.158  -0.000  -0.000  -0.152   0.000
  0.000  -0.000  -0.330   0.002   0.000   0.104  -0.002  -0.000
 -0.131   0.158   0.002  -0.248  -0.000  -0.004   0.193   0.000
  0.000  -0.000   0.000  -0.000  -0.168  -0.000  -0.000   0.133
  0.000  -0.000   0.104  -0.004  -0.000   0.385   0.004   0.000
  0.130  -0.152  -0.002   0.193  -0.000   0.004  -0.146  -0.000
 -0.000   0.000  -0.000   0.000   0.133   0.000  -0.000  -0.095


------------------------ aborting loop because EDIFF is reached ----------------------------------------


    CHARGE:  cpu time      0.0915: real time      0.0916
    FORLOC:  cpu time      0.0046: real time      0.0046
    FORNL :  cpu time      0.6065: real time      0.6066
    STRESS:  cpu time      1.7717: real time      1.7721
    FORHAR:  cpu time      0.0087: real time      0.0087
    MIXING:  cpu time      0.0047: real time      0.0047
    OFIELD:  cpu time      0.0000: real time      0.0000

  FORCE on cell =-STRESS in cart. coord.  units (eV):
  Direction    XX          YY          ZZ          XY          YZ          ZX
  --------------------------------------------------------------------------------------
  Alpha Z    15.03511    15.03511    15.03511
  Ewald     -24.03363  -317.17998   -72.18235     0.00000     0.00003     0.00001
  Hartree   174.12705    12.18796    68.09482    -0.00000     0.00002     0.00001
  E(xc)     -49.81541   -50.54190   -49.35116     0.00000     0.00000     0.00000
  Local    -385.17746    40.55930  -214.14541     0.00002    -0.00007    -0.00003
  n-local    49.29826    48.64603    37.64649     0.00000     0.00001    -0.00001
  augment    51.07485    58.12706    50.21439    -0.00000     0.00001     0.00000
  Kinetic   176.99070   193.62263   161.31384    -0.00001     0.00003     0.00002
  Fock        0.00000     0.00000     0.00000     0.00000     0.00000     0.00000
  -------------------------------------------------------------------------------------
  Total       7.49946     0.45621    -3.37427     0.00000     0.00002    -0.00000
  in kB     500.64453    30.45537  -225.25721     0.00007     0.00154    -0.00024
  external pressure =      101.95 kB  Pullay stress =        0.00 kB


 VOLUME and BASIS-vectors are now :
 -----------------------------------------------------------------------------
  energy-cutoff  :      600.00
  volume of cell :       24.00
      direct lattice vectors                 reciprocal lattice vectors
     2.000000000  0.000000000  0.000000000     0.500000000  0.000000000  0.000000000
     0.000000000  3.000000000  0.000000000     0.000000000  0.333333333  0.000000000
     0.000000000  0.000000000  4.000000000     0.000000000  0.000000000  0.250000000

  length of vectors
     2.000000000  3.000000000  4.000000000     0.500000000  0.333333333  0.250000000


 FORCES acting on ions
    electron-ion (+dipol)            ewald-force                    non-local-force                 convergence-correction
 -----------------------------------------------------------------------------------------------
   -.121E-04 -.212E-04 -.234E+03   0.883E-05 0.288E-04 0.280E+03   0.112E-04 0.494E-05 -.462E+02   -.122E-06 0.126E-05 0.181E-04
   -.221E-04 -.273E-04 0.213E+03   -.883E-05 -.288E-04 -.280E+03   0.241E-04 0.413E-04 0.670E+02   -.187E-06 0.941E-06 0.432E-03
 -----------------------------------------------------------------------------------------------
   -.342E-04 -.485E-04 -.207E+02   0.521E-15 -.503E-15 0.000E+00   0.353E-04 0.462E-04 0.207E+02   -.309E-06 0.220E-05 0.450E-03


 POSITION                                       TOTAL-FORCE (eV/Angst)
 -----------------------------------------------------------------------------------
      1.00000      1.50000      2.26592         0.000007      0.000014     -0.000001
      1.00000      1.50000      1.02359        -0.000007     -0.000014      0.000001
 -----------------------------------------------------------------------------------
    total drift:                                0.000001     -0.000000     -0.010559


--------------------------------------------------------------------------------------------------------



  FREE ENERGIE OF THE ION-ELECTRON SYSTEM (eV)
  ---------------------------------------------------
  free  energy   TOTEN  =       -11.03563161 eV

  energy  without entropy=      -11.03853059  energy(sigma->0) =      -11.03659794

 d Force = 0.6341802E-05[-0.512E-09, 0.127E-04]  d Energy = 0.6630882E-05-0.289E-06
 d Force = 0.1116803E+00[ 0.112E+00, 0.112E+00]  d Ewald  = 0.1116803E+00 0.498E-08


--------------------------------------------------------------------------------------------------------


    POTLOK:  cpu time      0.1741: real time      0.1742


--------------------------------------------------------------------------------------------------------




--------------------------------------------------------------------------------------------------------


  
 reached required accuracy - stopping structural energy minimisation
     LOOP+:  cpu time      7.0606: real time      7.0655
    4ORBIT:  cpu time      0.0001: real time      0.0008

 Spin-Orbit-Coupling matrix elements

 Ion:    1  E_soc:     -0.0001528
 l=   1
     0.0000000    -0.0000133    -0.0000451
    -0.0000133     0.0000000    -0.0000180
    -0.0000451    -0.0000180     0.0000000
 l=   2
     0.0000000     0.0000000     0.0000000     0.0000000     0.0000000
     0.0000000     0.0000000     0.0000000     0.0000000     0.0000000
     0.0000000     0.0000000     0.0000000     0.0000000     0.0000000
     0.0000000     0.0000000     0.0000000     0.0000000     0.0000000
     0.0000000     0.0000000     0.0000000     0.0000000     0.0000000
 l=   3
     0.0000000     0.0000000     0.0000000     0.0000000     0.0000000     0.0000000     0.0000000
     0.0000000     0.0000000     0.0000000     0.0000000     0.0000000     0.0000000     0.0000000
     0.0000000     0.0000000     0.0000000     0.0000000     0.0000000     0.0000000     0.0000000
     0.0000000     0.0000000     0.0000000     0.0000000     0.0000000     0.0000000     0.0000000
     0.0000000     0.0000000     0.0000000     0.0000000     0.0000000     0.0000000     0.0000000
     0.0000000     0.0000000     0.0000000     0.0000000     0.0000000     0.0000000     0.0000000
     0.0000000     0.0000000     0.0000000     0.0000000     0.0000000     0.0000000     0.0000000

 Ion:    2  E_soc:     -0.0002774
 l=   1
     0.0000000    -0.0000294    -0.0000743
    -0.0000294     0.0000000    -0.0000350
    -0.0000743    -0.0000350     0.0000000
 l=   2
     0.0000000     0.0000000     0.0000000     0.0000000     0.0000000
     0.0000000     0.0000000     0.0000000     0.0000000     0.0000000
     0.0000000     0.0000000     0.0000000     0.0000000     0.0000000
     0.0000000     0.0000000     0.0000000     0.0000000     0.0000000
     0.0000000     0.0000000     0.0000000     0.0000000     0.0000000
 l=   3
     0.0000000     0.0000000     0.0000000     0.0000000     0.0000000     0.0000000     0.0000000
     0.0000000     0.0000000     0.0000000     0.0000000     0.0000000     0.0000000     0.0000000
     0.0000000     0.0000000     0.0000000     0.0000000     0.0000000     0.0000000     0.0000000
     0.0000000     0.0000000     0.0000000     0.0000000     0.0000000     0.0000000     0.0000000
     0.0000000     0.0000000     0.0000000     0.0000000     0.0000000     0.0000000     0.0000000
     0.0000000     0.0000000     0.0000000     0.0000000     0.0000000     0.0000000     0.0000000
     0.0000000     0.0000000     0.0000000     0.0000000     0.0000000     0.0000000     0.0000000

 total amount of memory used by VASP MPI-rank0    45765. kBytes
=======================================================================

   base      :      30000. kBytes
   nonlr-proj:        506. kBytes
   fftplans  :       7242. kBytes
   grid      :       7471. kBytes
   one-center:         24. kBytes
   wavefun   :        522. kBytes

  
  
 General timing and accounting informations for this job:
 ========================================================
  
                  Total CPU time used (sec):       72.639
                            User time (sec):       68.642
                          System time (sec):        3.997
                         Elapsed time (sec):       72.779
  
                   Maximum memory used (kb):       96716.
                   Average memory used (kb):          N/A
  
                          Minor page faults:       756787
                          Major page faults:          174
                 Voluntary context switches:          237
