<?xml version="1.0" encoding="ISO-8859-1"?>
<modeling>
 <generator>
  <i name="program" type="string">vasp </i>
  <i name="version" type="string">6.4.3  </i>
  <i name="subversion" type="string">19Mar24 (build Jun 11 2024 10:25:29) complex                          parallel </i>
  <i name="platform" type="string">LinuxGNU </i>
  <i name="date" type="string">2024 07 25 </i>
  <i name="time" type="string">11:26:29 </i>
 </generator>
 <incar>
  <i type="string" name="PREC">Accurate</i>
  <i type="string" name="ALGO">FAST</i>
  <i type="logical" name="ADDGRID"> T  </i>
  <i type="logical" name="LSORBIT"> T  </i>
  <v name="SAXIS">      0.00000000      0.00000000      1.00000000</v>
  <i type="int" name="IBRION">     2</i>
  <i name="EDIFF">      0.00000100</i>
  <i name="EDIFFG">     -0.01000000</i>
  <i type="int" name="NSW">  1000</i>
  <i name="ENCUT">    600.00000000</i>
  <i type="int" name="NBANDS">    20</i>
  <i type="string" name="LREAL">Auto</i>
  <i type="int" name="ISMEAR">     1</i>
  <i name="SIGMA">      0.10000000</i>
  <i type="int" name="LMAXMIX">     4</i>
  <i type="logical" name="LWAVE"> F  </i>
  <i type="logical" name="LCHARG"> T  </i>
  <i type="logical" name="GGA_COMPAT"> F  </i>
 </incar>
 <primitive_cell>
  <structure name="primitive_cell" >
   <crystal>
    <varray name="basis" >
     <v>       2.00000000       0.00000000       0.00000000 </v>
     <v>       0.00000000       3.00000000       0.00000000 </v>
     <v>       0.00000000       0.00000000       4.00000000 </v>
    </varray>
    <i name="volume">     24.00000000 </i>
    <varray name="rec_basis" >
     <v>       0.50000000       0.00000000       0.00000000 </v>
     <v>       0.00000000       0.33333333       0.00000000 </v>
     <v>       0.00000000       0.00000000       0.25000000 </v>
    </varray>
   </crystal>
   <varray name="positions" >
    <v>       0.50000000       0.50000000       0.56044028 </v>
    <v>       0.50000000       0.50000000       0.26193626 </v>
   </varray>
  </structure>
  <varray name="primitive_index" >
   <v type="int" >        1 </v>
   <v type="int" >        2 </v>
  </varray>
 </primitive_cell>
 <kpoints>
  <generation param="Monkhorst-Pack">
   <v type="int" name="divisions">       2        2        1 </v>
   <v name="usershift">      0.00000000       0.00000000       0.00000000 </v>
   <v name="genvec1">      0.50000000       0.00000000       0.00000000 </v>
   <v name="genvec2">      0.00000000       0.50000000       0.00000000 </v>
   <v name="genvec3">      0.00000000       0.00000000       1.00000000 </v>
   <v name="shift">      0.50000000       0.50000000       0.00000000 </v>
  </generation>
  <varray name="kpointlist" >
   <v>       0.25000000       0.25000000       0.00000000 </v>
   <v>      -0.25000000      -0.25000000       0.00000000 </v>
   <v>       0.25000000      -0.25000000       0.00000000 </v>
   <v>      -0.25000000       0.25000000       0.00000000 </v>
  </varray>
  <varray name="weights" >
   <v>       0.25000000 </v>
   <v>       0.25000000 </v>
   <v>       0.25000000 </v>
   <v>       0.25000000 </v>
  </varray>
 </kpoints>
 <parameters>
  <separator name="general" >
   <i type="string" name="SYSTEM">unknown system</i>
   <i type="logical" name="LCOMPAT"> F  </i>
  </separator>
  <separator name="electronic" >
   <i type="string" name="PREC">accura</i>
   <i name="ENMAX">    600.00000000</i>
   <i name="ENAUG">    412.35200000</i>
   <i name="EDIFF">      0.00000100</i>
   <i type="int" name="IALGO">    68</i>
   <i type="int" name="IWAVPR">    11</i>
   <i type="int" name="NBANDS">    20</i>
   <i type="int" name="NBANDSLOW">    -1</i>
   <i type="int" name="NBANDSHIGH">    -1</i>
   <i name="NELECT">     11.00000000</i>
   <i type="int" name="TURBO">     0</i>
   <i type="int" name="IRESTART">     0</i>
   <i type="int" name="NREBOOT">     0</i>
   <i type="int" name="NMIN">     0</i>
   <i name="EREF">      0.00000000</i>
   <separator name="electronic smearing" >
    <i type="int" name="ISMEAR">     1</i>
    <i name="SIGMA">      0.10000000</i>
    <i name="KSPACING">      0.50000000</i>
    <i type="logical" name="KGAMMA"> T  </i>
    <i type="logical" name="KBLOWUP"> T  </i>
   </separator>
   <separator name="electronic projectors" >
    <i type="logical" name="LREAL"> T  </i>
    <v name="ROPT">     -0.00025000     -0.00025000</v>
    <i type="int" name="LMAXPAW">  -100</i>
    <i type="int" name="LMAXMIX">     4</i>
    <i type="logical" name="NLSPLINE"> F  </i>
   </separator>
   <separator name="electronic startup" >
    <i type="int" name="ISTART">     0</i>
    <i type="int" name="ICHARG">     2</i>
    <i type="int" name="INIWAV">     1</i>
   </separator>
   <separator name="electronic spin" >
    <i type="int" name="ISPIN">     1</i>
    <i type="logical" name="LNONCOLLINEAR"> T  </i>
    <v name="MAGMOM">      1.00000000      1.00000000      1.00000000      1.00000000      1.00000000      1.00000000</v>
    <i name="NUPDOWN">     -1.00000000</i>
    <i type="logical" name="LSORBIT"> T  </i>
    <v name="SAXIS">      0.00000000      0.00000000      1.00000000</v>
    <i type="logical" name="LSPIRAL"> F  </i>
    <v name="QSPIRAL">      0.00000000      0.00000000      0.00000000</v>
    <i type="logical" name="LZEROZ"> F  </i>
   </separator>
   <separator name="electronic exchange-correlation" >
    <i type="logical" name="LASPH"> F  </i>
   </separator>
   <separator name="electronic convergence" >
    <i type="int" name="NELM">    60</i>
    <i type="int" name="NELMDL">    -5</i>
    <i type="int" name="NELMIN">     2</i>
    <i name="ENINI">    600.00000000</i>
    <separator name="electronic convergence detail" >
     <i type="logical" name="LDIAG"> T  </i>
     <i type="logical" name="LSUBROT"> F  </i>
     <i name="WEIMIN">      0.00100000</i>
     <i name="EBREAK">      0.00000001</i>
     <i name="DEPER">      0.30000000</i>
     <i type="int" name="NRMM">     4</i>
     <i name="TIME">      0.40000000</i>
    </separator>
   </separator>
   <separator name="electronic mixer" >
    <i name="AMIX">      0.40000000</i>
    <i name="BMIX">      1.00000000</i>
    <i name="AMIN">      0.10000000</i>
    <i name="AMIX_MAG">      1.60000000</i>
    <i name="BMIX_MAG">      1.00000000</i>
    <separator name="electronic mixer details" >
     <i type="int" name="IMIX">     4</i>
     <i type="logical" name="MIXFIRST"> F  </i>
     <i type="int" name="MAXMIX">   -45</i>
     <i name="WC">    100.00000000</i>
     <i type="int" name="INIMIX">     1</i>
     <i type="int" name="MIXPRE">     1</i>
     <i type="int" name="MREMOVE">     5</i>
    </separator>
   </separator>
   <separator name="electronic dipolcorrection" >
    <i type="logical" name="LDIPOL"> F  </i>
    <i type="logical" name="LMONO"> F  </i>
    <i type="int" name="IDIPOL">     0</i>
    <i name="EPSILON">      1.00000000</i>
    <v name="DIPOL">   -100.00000000   -100.00000000   -100.00000000</v>
    <i name="EFIELD">      0.00000000</i>
    <i type="logical" name="LVACPOTAV"> F  </i>
   </separator>
  </separator>
  <separator name="grids" >
   <i type="int" name="NGX">    16</i>
   <i type="int" name="NGY">    24</i>
   <i type="int" name="NGZ">    32</i>
   <i type="int" name="NGXF">    32</i>
   <i type="int" name="NGYF">    48</i>
   <i type="int" name="NGZF">    64</i>
   <i type="logical" name="ADDGRID"> T  </i>
  </separator>
  <separator name="ionic" >
   <i type="int" name="NSW">  1000</i>
   <i type="int" name="IBRION">     2</i>
   <i type="int" name="MDALGO">     0</i>
   <i type="int" name="ISIF">     2</i>
   <i name="PSTRESS">      0.00000000</i>
   <i name="EDIFFG">     -0.01000000</i>
   <i type="int" name="NFREE">     1</i>
   <i name="POTIM">      0.50000000</i>
   <i name="SMASS">     -3.00000000</i>
   <i name="SCALEE">      1.00000000</i>
  </separator>
  <separator name="ionic md" >
   <i name="TEBEG">      0.00010000</i>
   <i name="TEEND">      0.00010000</i>
   <i type="int" name="NBLOCK">     1</i>
   <i type="int" name="KBLOCK">  1000</i>
   <i type="int" name="NPACO">   256</i>
   <i name="APACO">     10.00000000</i>
  </separator>
  <separator name="symmetry" >
   <i type="int" name="ISYM">     2</i>
   <i name="SYMPREC">      0.00001000</i>
  </separator>
  <separator name="dos" >
   <i type="int" name="LORBIT">     0</i>
   <v name="RWIGS">     -1.00000000     -1.00000000</v>
   <i type="int" name="NEDOS">   301</i>
   <i name="EMIN">     10.00000000</i>
   <i name="EMAX">    -10.00000000</i>
   <i name="EFERMI">      0.00000000</i>
  </separator>
  <separator name="writing" >
   <i type="int" name="NWRITE">     2</i>
   <i type="logical" name="LWAVE"> F  </i>
   <i type="logical" name="LDOWNSAMPLE"> F  </i>
   <i type="logical" name="LCHARG"> T  </i>
   <i type="logical" name="LPARD"> F  </i>
   <i type="logical" name="LVTOT"> F  </i>
   <i type="logical" name="LVHAR"> F  </i>
   <i type="logical" name="LELF"> F  </i>
   <i type="logical" name="LOPTICS"> F  </i>
   <v name="STM">      0.00000000      0.00000000      0.00000000      0.00000000      0.00000000      0.00000000      0.00000000</v>
  </separator>
  <separator name="performance" >
   <i type="int" name="NPAR">     4</i>
   <i type="int" name="NSIM">     4</i>
   <i type="int" name="NBLK">    -1</i>
   <i type="logical" name="LPLANE"> T  </i>
   <i type="logical" name="LSCALAPACK"> T  </i>
   <i type="logical" name="LSCAAWARE"> F  </i>
   <i type="logical" name="LSCALU"> F  </i>
   <i type="logical" name="LASYNC"> F  </i>
   <i type="logical" name="LORBITALREAL"> F  </i>
  </separator>
  <separator name="miscellaneous" >
   <i type="int" name="IDIOT">     3</i>
   <i type="int" name="PHON_NSTRUCT">    -1</i>
   <i type="logical" name="LMUSIC"> F  </i>
   <v name="POMASS">     14.00100000     16.00000000</v>
   <v name="DARWINR">      0.00000000      0.00000000</v>
   <v name="DARWINV">      1.00000000      1.00000000</v>
   <i type="logical" name="LCORR"> T  </i>
  </separator>
  <i type="logical" name="GGA_COMPAT"> F  </i>
  <i type="logical" name="LBERRY"> F  </i>
  <i type="int" name="ICORELEVEL">     0</i>
  <i type="logical" name="LDAU"> F  </i>
  <i type="int" name="I_CONSTRAINED_M">     0</i>
  <separator name="electronic exchange-correlation" >
   <i type="string" name="GGA    ">PE</i>
   <i type="string" name="XC_C">1</i>
   <i type="int" name="VOSKOWN">     0</i>
   <i type="logical" name="LHFCALC"> F  </i>
   <i type="string" name="PRECFOCK"></i>
   <i type="logical" name="LSYMGRAD"> F  </i>
   <i type="logical" name="LHFONE"> F  </i>
   <i type="logical" name="LRHFCALC"> F  </i>
   <i type="logical" name="LTHOMAS"> F  </i>
   <i type="logical" name="LMODELHF"> F  </i>
   <i type="logical" name="LFOCKACE"> F  </i>
   <i name="ENCUT4O">     -1.00000000</i>
   <i type="int" name="EXXOEP">     0</i>
   <i type="int" name="FOURORBIT">     0</i>
   <i name="AEXX">      0.00000000</i>
   <i name="HFALPHA">      0.00000000</i>
   <i name="MCALPHA">      0.00000000</i>
   <i name="ALDAX">      1.00000000</i>
   <i name="AGGAX">      1.00000000</i>
   <i name="AMGGAX">      1.00000000</i>
   <i name="ALDAC">      1.00000000</i>
   <i name="AGGAC">      1.00000000</i>
   <i name="AMGGAC">      1.00000000</i>
   <i type="int" name="NKREDX">     1</i>
   <i type="int" name="NKREDY">     1</i>
   <i type="int" name="NKREDZ">     1</i>
   <i type="logical" name="SHIFTRED"> F  </i>
   <i type="logical" name="ODDONLY"> F  </i>
   <i type="logical" name="EVENONLY"> F  </i>
   <i type="int" name="LMAXFOCK">     0</i>
   <i type="int" name="NMAXFOCKAE">     0</i>
   <i type="logical" name="LFOCKAEDFT"> F  </i>
   <i name="HFSCREEN">      0.00000000</i>
   <i name="HFSCREENC">      0.00000000</i>
   <i type="int" name="NBANDSGWLOW">     0</i>
  </separator>
  <separator name="vdW DFT" >
   <i type="logical" name="LUSE_VDW"> F  </i>
   <i type="int" name="IVDW_NL">    -1</i>
   <i type="logical" name="LSPIN_VDW"> F  </i>
   <i name="ZAB_VDW">     -0.84910000</i>
   <i name="GAMMA_VDW">      1.39626340</i>
   <i name="ALPHA_VDW">      0.00000000</i>
   <i name="PARAM1">      0.12340000</i>
   <i name="PARAM2">      1.00000000</i>
   <i name="BPARAM">      6.30000000</i>
   <i name="CPARAM">      0.00930000</i>
  </separator>
  <separator name="model GW" >
   <i type="int" name="MODEL_GW">     0</i>
   <i name="MODEL_EPS0">      7.20000000</i>
   <i name="MODEL_ALPHA">      1.00000000</i>
  </separator>
  <separator name="linear response parameters" >
   <i type="logical" name="LEPSILON"> F  </i>
   <i type="logical" name="LRPA"> F  </i>
   <i type="logical" name="LNABLA"> F  </i>
   <i type="logical" name="LVEL"> F  </i>
   <i name="CSHIFT">      0.10000000</i>
   <i name="OMEGAMAX">     -1.00000000</i>
   <i name="DEG_THRESHOLD">      0.00200000</i>
   <i name="RTIME">     -0.10000000</i>
   <i name="WPLASMAI">      0.00000000</i>
   <v name="DFIELD">      0.00000000      0.00000000      0.00000000</v>
   <v name="WPLASMA">      0.00000000      0.00000000      0.00000000      0.00000000      0.00000000      0.00000000      0.00000000      0.00000000      0.00000000</v>
  </separator>
  <separator name="orbital magnetization" >
   <i type="logical" name="NUCIND"> F  </i>
   <v name="MAGPOS">      0.00000000      0.00000000      0.00000000</v>
   <i type="logical" name="LNICSALL"> T  </i>
   <i type="logical" name="ORBITALMAG"> F  </i>
   <i type="logical" name="LMAGBLOCH"> F  </i>
   <i type="logical" name="LCHIMAG"> F  </i>
   <i type="logical" name="LGAUGE"> T  </i>
   <i type="int" name="MAGATOM">     0</i>
   <v name="MAGDIPOL">      0.00000000      0.00000000      0.00000000</v>
   <v name="AVECCONST">      0.00000000      0.00000000      0.00000000</v>
  </separator>
  <separator name="response functions" >
   <i type="logical" name="LALL_IN_ONE"> F  </i>
   <i type="int" name="IALL_IN_ONE">    -1</i>
   <i type="int" name="NBANDS_WAVE">    -1</i>
   <i type="logical" name="LFINITE_TEMPERATURE"> F  </i>
   <i type="logical" name="LADDER"> F  </i>
   <i type="logical" name="LRPAFORCE"> F  </i>
   <i type="logical" name="LFXC"> F  </i>
   <i type="logical" name="LHARTREE"> T  </i>
   <i type="int" name="IBSE">     0</i>
   <v type="int" name="KPOINT">    -1     0     0     0</v>
   <i type="logical" name="LTCTC"> F  </i>
   <i type="logical" name="LTCTE"> F  </i>
   <i type="logical" name="LTETE"> F  </i>
   <i type="logical" name="LTRIPLET"> F  </i>
   <i type="logical" name="LFXCEPS"> F  </i>
   <i type="logical" name="LFXHEG"> F  </i>
   <i type="int" name="NATURALO">     2</i>
   <i type="logical" name="LHOLEGF"> F  </i>
   <i type="logical" name="L2ORDER"> F  </i>
   <i type="logical" name="LDMP1"> F  </i>
   <i type="logical" name="LMP2LT"> F  </i>
   <i type="logical" name="LSMP2LT"> F  </i>
   <i type="logical" name="LGWLF"> F  </i>
   <i name="ENCUTGW">     -1.60000002</i>
   <i name="ENCUTGWSOFT">     -1.60000002</i>
   <i name="ENCUTLF">     -1.00000000</i>
   <i type="logical" name="ESF_SPLINES"> F  </i>
   <i name="ESF_CONV">      0.01000000</i>
   <i type="int" name="ESF_NINTER">    15</i>
   <i type="int" name="LMAXMP2">    -1</i>
   <i name="SCISSOR">      0.00000000</i>
   <i type="int" name="NOMEGA">     0</i>
   <i type="int" name="NOMEGAR">     0</i>
   <i type="int" name="NBANDSGW">    -1</i>
   <i type="int" name="NBANDSO">    -1</i>
   <i type="int" name="NBANDSV">    -1</i>
   <i type="int" name="NELMGW">     1</i>
   <i type="int" name="NELMHF">     1</i>
   <i type="int" name="DIM">     3</i>
   <i type="int" name="IESPILON">     4</i>
   <i type="int" name="ANTIRES">     0</i>
   <i name="OMEGAMAX">    -30.00000000</i>
   <i name="OMEGAMIN">    -30.00000000</i>
   <i name="OMEGATL">   -200.00000000</i>
   <i type="int" name="OMEGAGRID">     0</i>
   <i name="CSHIFT">     -0.10000000</i>
   <i type="logical" name="LSELFENERGY"> F  </i>
   <i type="logical" name="LSPECTRAL"> F  </i>
   <i type="logical" name="LSPECTRALGW"> F  </i>
   <i type="logical" name="LSINGLES"> F  </i>
   <i type="logical" name="LFERMIGW"> F  </i>
   <i type="logical" name="ODDONLYGW"> F  </i>
   <i type="logical" name="EVENONLYGW"> F  </i>
   <i type="int" name="NKREDLFX">     1</i>
   <i type="int" name="NKREDLFY">     1</i>
   <i type="int" name="NKREDLFZ">     1</i>
   <i type="int" name="MAXMEM">  2800</i>
   <i type="int" name="TELESCOPE">     0</i>
   <i type="int" name="NTAUPAR">    -1</i>
   <i type="int" name="NOMEGAPAR">    -1</i>
   <i name="DAMP_NEWTON">      0.80000001</i>
   <i name="LAMBDA">      1.00000000</i>
  </separator>
  <separator name="External order field" >
   <i name="OFIELD_KAPPA">      0.00000000</i>
   <v name="OFIELD_K">      0.00000000      0.00000000      0.00000000</v>
   <i name="OFIELD_Q6_NEAR">      0.00000000</i>
   <i name="OFIELD_Q6_FAR">      0.00000000</i>
   <i name="OFIELD_A">      0.00000000</i>
  </separator>
  <separator name="optional k-points parameters" >
   <i type="int" name="KPOINTS_OPT_MODE">     1</i>
   <i type="logical" name="LKPOINTS_OPT"> F  </i>
  </separator>
 </parameters>
 <atominfo>
  <atoms>       2 </atoms>
  <types>       2 </types>
  <array name="atoms" >
   <dimension dim="1">ion</dimension>
   <field type="string">element</field>
   <field type="int">atomtype</field>
   <set>
    <rc><c>N </c><c>   1</c></rc>
    <rc><c>O </c><c>   2</c></rc>
   </set>
  </array>
  <array name="atomtypes" >
   <dimension dim="1">type</dimension>
   <field type="int">atomspertype</field>
   <field type="string">element</field>
   <field>mass</field>
   <field>valence</field>
   <field type="string">pseudopotential</field>
   <set>
    <rc><c>   1</c><c>N </c><c>     14.00100000</c><c>      5.00000000</c><c>  PAW_PBE N_s 07Sep2000                 </c></rc>
    <rc><c>   1</c><c>O </c><c>     16.00000000</c><c>      6.00000000</c><c>  PAW_PBE O_s 07Sep2000                 </c></rc>
   </set>
  </array>
 </atominfo>
 <structure name="initialpos" >
  <crystal>
   <varray name="basis" >
    <v>       2.00000000       0.00000000       0.00000000 </v>
    <v>       0.00000000       3.00000000       0.00000000 </v>
    <v>       0.00000000       0.00000000       4.00000000 </v>
   </varray>
   <i name="volume">     24.00000000 </i>
   <varray name="rec_basis" >
    <v>       0.50000000       0.00000000       0.00000000 </v>
    <v>       0.00000000       0.33333333       0.00000000 </v>
    <v>       0.00000000       0.00000000       0.25000000 </v>
   </varray>
  </crystal>
  <varray name="positions" >
   <v>       0.50000000       0.50000000       0.56044028 </v>
   <v>       0.50000000       0.50000000       0.26193626 </v>
  </varray>
  <varray name="selective"  type="logical" >
   <v type="logical" >  T  T  T </v>
   <v type="logical" >  T  T  T </v>
  </varray>
  <nose>
   <v>      -3.00000000       0.00000000       0.00010000       0.00010000 </v>
  </nose>
 </structure>
 <calculation>
  <scstep>
   <time name="dav">    0.11    0.11</time>
   <time name="total">    0.22    0.23</time>
   <energy>
    <i name="alphaZ">     15.03510525 </i>
    <i name="ewald">   -399.22983762 </i>
    <i name="hartreedc">   -260.96009246 </i>
    <i name="XCdc">     48.09450970 </i>
    <i name="pawpsdc">    548.25871254 </i>
    <i name="pawaedc">   -553.59201511 </i>
    <i name="eentropy">      0.00072474 </i>
    <i name="bandstr">     10.91068346 </i>
    <i name="atom">    696.92349690 </i>
    <i name="e_fr_energy">    105.44128741 </i>
    <i name="e_wo_entrp">    105.44056267 </i>
    <i name="e_0_energy">    105.44104583 </i>
   </energy>
  </scstep>
  <scstep>
   <time name="dav">    0.11    0.11</time>
   <time name="total">    0.11    0.11</time>
   <energy>
    <i name="e_fr_energy">     -4.02317128 </i>
    <i name="e_wo_entrp">     -4.02454269 </i>
    <i name="e_0_energy">     -4.02362841 </i>
   </energy>
  </scstep>
  <scstep>
   <time name="dav">    0.13    0.13</time>
   <time name="total">    0.13    0.13</time>
   <energy>
    <i name="e_fr_energy">     -9.78777159 </i>
    <i name="e_wo_entrp">     -9.79067275 </i>
    <i name="e_0_energy">     -9.78873864 </i>
   </energy>
  </scstep>
  <scstep>
   <time name="dav">    0.12    0.12</time>
   <time name="total">    0.12    0.12</time>
   <energy>
    <i name="e_fr_energy">     -9.84332328 </i>
    <i name="e_wo_entrp">     -9.84622227 </i>
    <i name="e_0_energy">     -9.84428961 </i>
   </energy>
  </scstep>
  <scstep>
   <time name="dav">    0.12    0.12</time>
   <time name="total">    0.19    0.19</time>
   <energy>
    <i name="e_fr_energy">     -9.84392931 </i>
    <i name="e_wo_entrp">     -9.84682831 </i>
    <i name="e_0_energy">     -9.84489565 </i>
   </energy>
  </scstep>
  <scstep>
   <time name="diag">    0.02    0.03</time>
   <time name="diis">    0.07    0.07</time>
   <time name="orth">    0.00    0.00</time>
   <time name="total">    0.27    0.29</time>
   <energy>
    <i name="e_fr_energy">    -10.82135224 </i>
    <i name="e_wo_entrp">    -10.82425121 </i>
    <i name="e_0_energy">    -10.82231856 </i>
   </energy>
  </scstep>
  <scstep>
   <time name="diag">    0.02    0.02</time>
   <time name="diis">    0.07    0.07</time>
   <time name="orth">    0.00    0.00</time>
   <time name="total">    0.27    0.27</time>
   <energy>
    <i name="e_fr_energy">    -10.31979607 </i>
    <i name="e_wo_entrp">    -10.32269510 </i>
    <i name="e_0_energy">    -10.32076242 </i>
   </energy>
  </scstep>
  <scstep>
   <time name="diag">    0.02    0.02</time>
   <time name="diis">    0.07    0.07</time>
   <time name="orth">    0.00    0.00</time>
   <time name="total">    0.27    0.27</time>
   <energy>
    <i name="e_fr_energy">    -10.92259572 </i>
    <i name="e_wo_entrp">    -10.92549470 </i>
    <i name="e_0_energy">    -10.92356204 </i>
   </energy>
  </scstep>
  <scstep>
   <time name="diag">    0.02    0.02</time>
   <time name="diis">    0.07    0.07</time>
   <time name="orth">    0.00    0.00</time>
   <time name="total">    0.27    0.27</time>
   <energy>
    <i name="e_fr_energy">    -10.93143331 </i>
    <i name="e_wo_entrp">    -10.93433230 </i>
    <i name="e_0_energy">    -10.93239964 </i>
   </energy>
  </scstep>
  <scstep>
   <time name="diag">    0.02    0.02</time>
   <time name="diis">    0.07    0.07</time>
   <time name="orth">    0.00    0.00</time>
   <time name="total">    0.27    0.27</time>
   <energy>
    <i name="e_fr_energy">    -10.92857836 </i>
    <i name="e_wo_entrp">    -10.93147735 </i>
    <i name="e_0_energy">    -10.92954469 </i>
   </energy>
  </scstep>
  <scstep>
   <time name="diag">    0.02    0.02</time>
   <time name="diis">    0.07    0.07</time>
   <time name="orth">    0.00    0.00</time>
   <time name="total">    0.27    0.27</time>
   <energy>
    <i name="e_fr_energy">    -10.92812867 </i>
    <i name="e_wo_entrp">    -10.93102766 </i>
    <i name="e_0_energy">    -10.92909500 </i>
   </energy>
  </scstep>
  <scstep>
   <time name="diag">    0.02    0.02</time>
   <time name="diis">    0.07    0.07</time>
   <time name="orth">    0.00    0.00</time>
   <time name="total">    0.27    0.27</time>
   <energy>
    <i name="e_fr_energy">    -10.92808887 </i>
    <i name="e_wo_entrp">    -10.93098786 </i>
    <i name="e_0_energy">    -10.92905520 </i>
   </energy>
  </scstep>
  <scstep>
   <time name="diag">    0.02    0.02</time>
   <time name="diis">    0.07    0.07</time>
   <time name="orth">    0.00    0.00</time>
   <time name="total">    0.27    0.28</time>
   <energy>
    <i name="e_fr_energy">    -10.92809819 </i>
    <i name="e_wo_entrp">    -10.93099719 </i>
    <i name="e_0_energy">    -10.92906453 </i>
   </energy>
  </scstep>
  <scstep>
   <time name="diag">    0.02    0.02</time>
   <time name="diis">    0.07    0.07</time>
   <time name="orth">    0.00    0.00</time>
   <time name="total">    0.27    0.28</time>
   <energy>
    <i name="e_fr_energy">    -10.92810272 </i>
    <i name="e_wo_entrp">    -10.93100171 </i>
    <i name="e_0_energy">    -10.92906905 </i>
   </energy>
  </scstep>
  <scstep>
   <time name="diag">    0.02    0.02</time>
   <time name="diis">    0.07    0.07</time>
   <time name="orth">    0.00    0.00</time>
   <time name="total">    0.27    0.27</time>
   <energy>
    <i name="e_fr_energy">    -10.92812184 </i>
    <i name="e_wo_entrp">    -10.93102083 </i>
    <i name="e_0_energy">    -10.92908817 </i>
   </energy>
  </scstep>
  <scstep>
   <time name="diag">    0.02    0.02</time>
   <time name="diis">    0.07    0.07</time>
   <time name="orth">    0.00    0.00</time>
   <time name="total">    0.27    0.28</time>
   <energy>
    <i name="e_fr_energy">    -10.92814170 </i>
    <i name="e_wo_entrp">    -10.93104069 </i>
    <i name="e_0_energy">    -10.92910803 </i>
   </energy>
  </scstep>
  <scstep>
   <time name="diag">    0.02    0.02</time>
   <time name="diis">    0.07    0.07</time>
   <time name="orth">    0.00    0.00</time>
   <time name="total">    0.27    0.28</time>
   <energy>
    <i name="e_fr_energy">    -10.92815579 </i>
    <i name="e_wo_entrp">    -10.93105478 </i>
    <i name="e_0_energy">    -10.92912212 </i>
   </energy>
  </scstep>
  <scstep>
   <time name="diag">    0.02    0.02</time>
   <time name="diis">    0.07    0.07</time>
   <time name="orth">    0.00    0.00</time>
   <time name="total">    0.28    0.28</time>
   <energy>
    <i name="e_fr_energy">    -10.92815265 </i>
    <i name="e_wo_entrp">    -10.93105164 </i>
    <i name="e_0_energy">    -10.92911898 </i>
   </energy>
  </scstep>
  <scstep>
   <time name="diag">    0.02    0.02</time>
   <time name="diis">    0.07    0.07</time>
   <time name="orth">    0.00    0.00</time>
   <time name="total">    0.27    0.27</time>
   <energy>
    <i name="e_fr_energy">    -10.92815506 </i>
    <i name="e_wo_entrp">    -10.93105405 </i>
    <i name="e_0_energy">    -10.92912139 </i>
   </energy>
  </scstep>
  <scstep>
   <time name="diag">    0.02    0.02</time>
   <time name="diis">    0.07    0.07</time>
   <time name="orth">    0.00    0.00</time>
   <time name="total">    0.27    0.28</time>
   <energy>
    <i name="e_fr_energy">    -10.92816227 </i>
    <i name="e_wo_entrp">    -10.93106126 </i>
    <i name="e_0_energy">    -10.92912860 </i>
   </energy>
  </scstep>
  <scstep>
   <time name="diag">    0.02    0.02</time>
   <time name="diis">    0.07    0.07</time>
   <time name="orth">    0.00    0.00</time>
   <time name="total">    0.28    0.28</time>
   <energy>
    <i name="e_fr_energy">    -10.92816620 </i>
    <i name="e_wo_entrp">    -10.93106519 </i>
    <i name="e_0_energy">    -10.92913253 </i>
   </energy>
  </scstep>
  <scstep>
   <time name="diag">    0.02    0.02</time>
   <time name="diis">    0.07    0.07</time>
   <time name="orth">    0.00    0.00</time>
   <time name="total">    0.28    0.28</time>
   <energy>
    <i name="e_fr_energy">    -10.92816161 </i>
    <i name="e_wo_entrp">    -10.93106060 </i>
    <i name="e_0_energy">    -10.92912794 </i>
   </energy>
  </scstep>
  <scstep>
   <time name="diag">    0.02    0.02</time>
   <time name="diis">    0.07    0.07</time>
   <time name="orth">    0.00    0.00</time>
   <time name="total">    0.28    0.28</time>
   <energy>
    <i name="e_fr_energy">    -10.92816829 </i>
    <i name="e_wo_entrp">    -10.93106728 </i>
    <i name="e_0_energy">    -10.92913462 </i>
   </energy>
  </scstep>
  <scstep>
   <time name="diag">    0.02    0.02</time>
   <time name="diis">    0.07    0.07</time>
   <time name="orth">    0.00    0.00</time>
   <time name="total">    0.28    0.28</time>
   <energy>
    <i name="e_fr_energy">    -10.92816893 </i>
    <i name="e_wo_entrp">    -10.93106792 </i>
    <i name="e_0_energy">    -10.92913526 </i>
   </energy>
  </scstep>
  <scstep>
   <time name="diag">    0.02    0.02</time>
   <time name="diis">    0.07    0.07</time>
   <time name="orth">    0.00    0.00</time>
   <time name="total">    0.27    0.27</time>
   <energy>
    <i name="e_fr_energy">    -10.92817055 </i>
    <i name="e_wo_entrp">    -10.93106954 </i>
    <i name="e_0_energy">    -10.92913688 </i>
   </energy>
  </scstep>
  <scstep>
   <time name="diag">    0.02    0.02</time>
   <time name="diis">    0.07    0.07</time>
   <time name="orth">    0.00    0.00</time>
   <time name="total">    0.27    0.27</time>
   <energy>
    <i name="e_fr_energy">    -10.92817002 </i>
    <i name="e_wo_entrp">    -10.93106901 </i>
    <i name="e_0_energy">    -10.92913635 </i>
   </energy>
  </scstep>
  <scstep>
   <time name="diag">    0.02    0.02</time>
   <time name="diis">    0.07    0.07</time>
   <time name="orth">    0.00    0.00</time>
   <time name="total">    0.27    0.27</time>
   <energy>
    <i name="e_fr_energy">    -10.92816955 </i>
    <i name="e_wo_entrp">    -10.93106854 </i>
    <i name="e_0_energy">    -10.92913588 </i>
   </energy>
  </scstep>
  <scstep>
   <time name="diag">    0.02    0.02</time>
   <time name="diis">    0.07    0.07</time>
   <time name="orth">    0.00    0.00</time>
   <time name="total">    0.20    0.21</time>
   <energy>
    <i name="alphaZ">     15.03510525 </i>
    <i name="ewald">   -399.22983762 </i>
    <i name="hartreedc">   -265.45730293 </i>
    <i name="XCdc">     47.87895819 </i>
    <i name="pawpsdc">   3314.25031731 </i>
    <i name="pawaedc">  -3320.11588289 </i>
    <i name="eentropy">      0.00289899 </i>
    <i name="bandstr">   -100.21592279 </i>
    <i name="atom">    696.92349690 </i>
    <i name="e_fr_energy">    -10.92816959 </i>
    <i name="e_wo_entrp">    -10.93106858 </i>
    <i name="e_0_energy">    -10.92913592 </i>
   </energy>
  </scstep>
  <structure>
   <crystal>
    <varray name="basis" >
     <v>       2.00000000       0.00000000       0.00000000 </v>
     <v>       0.00000000       3.00000000       0.00000000 </v>
     <v>       0.00000000       0.00000000       4.00000000 </v>
    </varray>
    <i name="volume">     24.00000000 </i>
    <varray name="rec_basis" >
     <v>       0.50000000       0.00000000       0.00000000 </v>
     <v>       0.00000000       0.33333333       0.00000000 </v>
     <v>       0.00000000       0.00000000       0.25000000 </v>
    </varray>
   </crystal>
   <varray name="positions" >
    <v>       0.50000000       0.50000000       0.56044028 </v>
    <v>       0.50000000       0.50000000       0.26193626 </v>
   </varray>
  </structure>
  <varray name="forces" >
   <v>       0.00000763       0.00001404       4.72750573 </v>
   <v>      -0.00000763      -0.00001404      -4.72750573 </v>
  </varray>
  <varray name="stress" >
   <v>     488.76445951      -0.00001263      -0.00022852 </v>
   <v>      -0.00003925      30.81272945       0.00018092 </v>
   <v>       0.00124285       0.00168833     192.41812694 </v>
  </varray>
  <energy>
   <i name="e_fr_energy">    -10.92816959 </i>
   <i name="e_wo_entrp">    -10.93106858 </i>
   <i name="e_0_energy">    -10.92913592 </i>
  </energy>
  <time name="totalsc">    8.71    8.78</time>
 </calculation>
 <calculation>
  <scstep>
   <time name="dav">    0.10    0.10</time>
   <time name="total">    0.26    0.26</time>
   <energy>
    <i name="alphaZ">     15.03510525 </i>
    <i name="ewald">   -490.20373222 </i>
    <i name="hartreedc">   -198.39096756 </i>
    <i name="XCdc">     46.58408614 </i>
    <i name="pawpsdc">   3314.24857599 </i>
    <i name="pawaedc">  -3320.11414090 </i>
    <i name="eentropy">      0.00289897 </i>
    <i name="bandstr">    -71.91156451 </i>
    <i name="atom">    696.92349690 </i>
    <i name="e_fr_energy">     -7.82624193 </i>
    <i name="e_wo_entrp">     -7.82914090 </i>
    <i name="e_0_energy">     -7.82720826 </i>
   </energy>
  </scstep>
  <scstep>
   <time name="diag">    0.02    0.02</time>
   <time name="diis">    0.07    0.07</time>
   <time name="orth">    0.00    0.00</time>
   <time name="total">    0.25    0.25</time>
   <energy>
    <i name="e_fr_energy">     -9.72380468 </i>
    <i name="e_wo_entrp">     -9.72670364 </i>
    <i name="e_0_energy">     -9.72477100 </i>
   </energy>
  </scstep>
  <scstep>
   <time name="diag">    0.02    0.02</time>
   <time name="diis">    0.07    0.07</time>
   <time name="orth">    0.00    0.00</time>
   <time name="total">    0.25    0.25</time>
   <energy>
    <i name="e_fr_energy">     -8.91109626 </i>
    <i name="e_wo_entrp">     -8.91399523 </i>
    <i name="e_0_energy">     -8.91206258 </i>
   </energy>
  </scstep>
  <scstep>
   <time name="diag">    0.02    0.02</time>
   <time name="diis">    0.07    0.07</time>
   <time name="orth">    0.00    0.00</time>
   <time name="total">    0.25    0.25</time>
   <energy>
    <i name="e_fr_energy">     -8.65090577 </i>
    <i name="e_wo_entrp">     -8.65380473 </i>
    <i name="e_0_energy">     -8.65187209 </i>
   </energy>
  </scstep>
  <scstep>
   <time name="diag">    0.02    0.02</time>
   <time name="diis">    0.07    0.07</time>
   <time name="orth">    0.00    0.00</time>
   <time name="total">    0.25    0.25</time>
   <energy>
    <i name="e_fr_energy">     -8.63490312 </i>
    <i name="e_wo_entrp">     -8.63780208 </i>
    <i name="e_0_energy">     -8.63586944 </i>
   </energy>
  </scstep>
  <scstep>
   <time name="diag">    0.02    0.02</time>
   <time name="diis">    0.07    0.07</time>
   <time name="orth">    0.00    0.00</time>
   <time name="total">    0.25    0.25</time>
   <energy>
    <i name="e_fr_energy">     -8.64314196 </i>
    <i name="e_wo_entrp">     -8.64604092 </i>
    <i name="e_0_energy">     -8.64410828 </i>
   </energy>
  </scstep>
  <scstep>
   <time name="diag">    0.02    0.02</time>
   <time name="diis">    0.07    0.07</time>
   <time name="orth">    0.00    0.00</time>
   <time name="total">    0.25    0.25</time>
   <energy>
    <i name="e_fr_energy">     -8.64338866 </i>
    <i name="e_wo_entrp">     -8.64628762 </i>
    <i name="e_0_energy">     -8.64435498 </i>
   </energy>
  </scstep>
  <scstep>
   <time name="diag">    0.02    0.02</time>
   <time name="diis">    0.07    0.07</time>
   <time name="orth">    0.00    0.00</time>
   <time name="total">    0.25    0.25</time>
   <energy>
    <i name="e_fr_energy">     -8.64644020 </i>
    <i name="e_wo_entrp">     -8.64933916 </i>
    <i name="e_0_energy">     -8.64740652 </i>
   </energy>
  </scstep>
  <scstep>
   <time name="diag">    0.02    0.02</time>
   <time name="diis">    0.07    0.07</time>
   <time name="orth">    0.00    0.00</time>
   <time name="total">    0.25    0.25</time>
   <energy>
    <i name="e_fr_energy">     -8.65563370 </i>
    <i name="e_wo_entrp">     -8.65853266 </i>
    <i name="e_0_energy">     -8.65660002 </i>
   </energy>
  </scstep>
  <scstep>
   <time name="diag">    0.02    0.02</time>
   <time name="diis">    0.07    0.07</time>
   <time name="orth">    0.00    0.00</time>
   <time name="total">    0.25    0.25</time>
   <energy>
    <i name="e_fr_energy">     -8.66132253 </i>
    <i name="e_wo_entrp">     -8.66422148 </i>
    <i name="e_0_energy">     -8.66228884 </i>
   </energy>
  </scstep>
  <scstep>
   <time name="diag">    0.02    0.02</time>
   <time name="diis">    0.07    0.07</time>
   <time name="orth">    0.00    0.00</time>
   <time name="total">    0.25    0.25</time>
   <energy>
    <i name="e_fr_energy">     -8.66299671 </i>
    <i name="e_wo_entrp">     -8.66589567 </i>
    <i name="e_0_energy">     -8.66396303 </i>
   </energy>
  </scstep>
  <scstep>
   <time name="diag">    0.02    0.02</time>
   <time name="diis">    0.07    0.07</time>
   <time name="orth">    0.00    0.00</time>
   <time name="total">    0.26    0.26</time>
   <energy>
    <i name="e_fr_energy">     -8.66267581 </i>
    <i name="e_wo_entrp">     -8.66557476 </i>
    <i name="e_0_energy">     -8.66364212 </i>
   </energy>
  </scstep>
  <scstep>
   <time name="diag">    0.03    0.03</time>
   <time name="diis">    0.09    0.09</time>
   <time name="orth">    0.00    0.00</time>
   <time name="total">    0.31    0.31</time>
   <energy>
    <i name="e_fr_energy">     -8.66298449 </i>
    <i name="e_wo_entrp">     -8.66588344 </i>
    <i name="e_0_energy">     -8.66395081 </i>
   </energy>
  </scstep>
  <scstep>
   <time name="diag">    0.03    0.03</time>
   <time name="diis">    0.10    0.10</time>
   <time name="orth">    0.00    0.00</time>
   <time name="total">    0.34    0.34</time>
   <energy>
    <i name="e_fr_energy">     -8.66307416 </i>
    <i name="e_wo_entrp">     -8.66597311 </i>
    <i name="e_0_energy">     -8.66404048 </i>
   </energy>
  </scstep>
  <scstep>
   <time name="diag">    0.03    0.03</time>
   <time name="diis">    0.10    0.10</time>
   <time name="orth">    0.00    0.00</time>
   <time name="total">    0.35    0.35</time>
   <energy>
    <i name="e_fr_energy">     -8.66312897 </i>
    <i name="e_wo_entrp">     -8.66602792 </i>
    <i name="e_0_energy">     -8.66409529 </i>
   </energy>
  </scstep>
  <scstep>
   <time name="diag">    0.03    0.03</time>
   <time name="diis">    0.10    0.10</time>
   <time name="orth">    0.00    0.00</time>
   <time name="total">    0.35    0.35</time>
   <energy>
    <i name="e_fr_energy">     -8.66315760 </i>
    <i name="e_wo_entrp">     -8.66605655 </i>
    <i name="e_0_energy">     -8.66412392 </i>
   </energy>
  </scstep>
  <scstep>
   <time name="diag">    0.03    0.03</time>
   <time name="diis">    0.10    0.10</time>
   <time name="orth">    0.00    0.00</time>
   <time name="total">    0.35    0.35</time>
   <energy>
    <i name="e_fr_energy">     -8.66315748 </i>
    <i name="e_wo_entrp">     -8.66605643 </i>
    <i name="e_0_energy">     -8.66412380 </i>
   </energy>
  </scstep>
  <scstep>
   <time name="diag">    0.03    0.03</time>
   <time name="diis">    0.10    0.10</time>
   <time name="orth">    0.00    0.00</time>
   <time name="total">    0.35    0.35</time>
   <energy>
    <i name="e_fr_energy">     -8.66318033 </i>
    <i name="e_wo_entrp">     -8.66607928 </i>
    <i name="e_0_energy">     -8.66414665 </i>
   </energy>
  </scstep>
  <scstep>
   <time name="diag">    0.03    0.03</time>
   <time name="diis">    0.10    0.10</time>
   <time name="orth">    0.00    0.00</time>
   <time name="total">    0.35    0.35</time>
   <energy>
    <i name="e_fr_energy">     -8.66316116 </i>
    <i name="e_wo_entrp">     -8.66606011 </i>
    <i name="e_0_energy">     -8.66412748 </i>
   </energy>
  </scstep>
  <scstep>
   <time name="diag">    0.03    0.03</time>
   <time name="diis">    0.10    0.10</time>
   <time name="orth">    0.00    0.00</time>
   <time name="total">    0.35    0.35</time>
   <energy>
    <i name="e_fr_energy">     -8.66318158 </i>
    <i name="e_wo_entrp">     -8.66608054 </i>
    <i name="e_0_energy">     -8.66414790 </i>
   </energy>
  </scstep>
  <scstep>
   <time name="diag">    0.03    0.03</time>
   <time name="diis">    0.10    0.10</time>
   <time name="orth">    0.00    0.00</time>
   <time name="total">    0.35    0.35</time>
   <energy>
    <i name="e_fr_energy">     -8.66320496 </i>
    <i name="e_wo_entrp">     -8.66610391 </i>
    <i name="e_0_energy">     -8.66417128 </i>
   </energy>
  </scstep>
  <scstep>
   <time name="diag">    0.03    0.03</time>
   <time name="diis">    0.10    0.10</time>
   <time name="orth">    0.00    0.00</time>
   <time name="total">    0.35    0.35</time>
   <energy>
    <i name="e_fr_energy">     -8.66319870 </i>
    <i name="e_wo_entrp">     -8.66609765 </i>
    <i name="e_0_energy">     -8.66416502 </i>
   </energy>
  </scstep>
  <scstep>
   <time name="diag">    0.03    0.03</time>
   <time name="diis">    0.10    0.10</time>
   <time name="orth">    0.00    0.00</time>
   <time name="total">    0.35    0.35</time>
   <energy>
    <i name="e_fr_energy">     -8.66321380 </i>
    <i name="e_wo_entrp">     -8.66611276 </i>
    <i name="e_0_energy">     -8.66418012 </i>
   </energy>
  </scstep>
  <scstep>
   <time name="diag">    0.03    0.03</time>
   <time name="diis">    0.10    0.10</time>
   <time name="orth">    0.00    0.00</time>
   <time name="total">    0.35    0.35</time>
   <energy>
    <i name="e_fr_energy">     -8.66321952 </i>
    <i name="e_wo_entrp">     -8.66611847 </i>
    <i name="e_0_energy">     -8.66418584 </i>
   </energy>
  </scstep>
  <scstep>
   <time name="diag">    0.03    0.03</time>
   <time name="diis">    0.10    0.10</time>
   <time name="orth">    0.00    0.00</time>
   <time name="total">    0.35    0.35</time>
   <energy>
    <i name="e_fr_energy">     -8.66322239 </i>
    <i name="e_wo_entrp">     -8.66612134 </i>
    <i name="e_0_energy">     -8.66418871 </i>
   </energy>
  </scstep>
  <scstep>
   <time name="diag">    0.03    0.03</time>
   <time name="diis">    0.09    0.09</time>
   <time name="orth">    0.00    0.00</time>
   <time name="total">    0.34    0.34</time>
   <energy>
    <i name="e_fr_energy">     -8.66322365 </i>
    <i name="e_wo_entrp">     -8.66612260 </i>
    <i name="e_0_energy">     -8.66418996 </i>
   </energy>
  </scstep>
  <scstep>
   <time name="diag">    0.03    0.03</time>
   <time name="diis">    0.09    0.09</time>
   <time name="orth">    0.00    0.00</time>
   <time name="total">    0.34    0.34</time>
   <energy>
    <i name="e_fr_energy">     -8.66322328 </i>
    <i name="e_wo_entrp">     -8.66612224 </i>
    <i name="e_0_energy">     -8.66418960 </i>
   </energy>
  </scstep>
  <scstep>
   <time name="diag">    0.03    0.03</time>
   <time name="diis">    0.10    0.10</time>
   <time name="orth">    0.00    0.00</time>
   <time name="total">    0.35    0.35</time>
   <energy>
    <i name="e_fr_energy">     -8.66322581 </i>
    <i name="e_wo_entrp">     -8.66612477 </i>
    <i name="e_0_energy">     -8.66419213 </i>
   </energy>
  </scstep>
  <scstep>
   <time name="diag">    0.03    0.03</time>
   <time name="diis">    0.09    0.09</time>
   <time name="orth">    0.00    0.00</time>
   <time name="total">    0.33    0.33</time>
   <energy>
    <i name="e_fr_energy">     -8.66322493 </i>
    <i name="e_wo_entrp">     -8.66612388 </i>
    <i name="e_0_energy">     -8.66419124 </i>
   </energy>
  </scstep>
  <scstep>
   <time name="diag">    0.03    0.03</time>
   <time name="diis">    0.08    0.08</time>
   <time name="orth">    0.00    0.00</time>
   <time name="total">    0.33    0.33</time>
   <energy>
    <i name="e_fr_energy">     -8.66322627 </i>
    <i name="e_wo_entrp">     -8.66612522 </i>
    <i name="e_0_energy">     -8.66419259 </i>
   </energy>
  </scstep>
  <scstep>
   <time name="diag">    0.03    0.03</time>
   <time name="diis">    0.07    0.07</time>
   <time name="orth">    0.00    0.00</time>
   <time name="total">    0.24    0.24</time>
   <energy>
    <i name="alphaZ">     15.03510525 </i>
    <i name="ewald">   -490.20373222 </i>
    <i name="hartreedc">   -189.68395998 </i>
    <i name="XCdc">     46.00039207 </i>
    <i name="pawpsdc">   1143.39270411 </i>
    <i name="pawaedc">  -1148.37353957 </i>
    <i name="eentropy">      0.00289895 </i>
    <i name="bandstr">    -81.75659250 </i>
    <i name="atom">    696.92349690 </i>
    <i name="e_fr_energy">     -8.66322697 </i>
    <i name="e_wo_entrp">     -8.66612592 </i>
    <i name="e_0_energy">     -8.66419328 </i>
   </energy>
  </scstep>
  <structure>
   <crystal>
    <varray name="basis" >
     <v>       2.00000000       0.00000000       0.00000000 </v>
     <v>       0.00000000       3.00000000       0.00000000 </v>
     <v>       0.00000000       0.00000000       4.00000000 </v>
    </varray>
    <i name="volume">     24.00000000 </i>
    <varray name="rec_basis" >
     <v>       0.50000000       0.00000000       0.00000000 </v>
     <v>       0.00000000       0.33333333       0.00000000 </v>
     <v>       0.00000000       0.00000000       0.25000000 </v>
    </varray>
   </crystal>
   <varray name="positions" >
    <v>       0.50000018       0.50000023       0.61745714 </v>
    <v>       0.49999982       0.49999977       0.20491940 </v>
   </varray>
  </structure>
  <varray name="forces" >
   <v>       0.00000561       0.00000755      -5.28632964 </v>
   <v>      -0.00000561      -0.00000755       5.28632964 </v>
  </varray>
  <varray name="stress" >
   <v>     596.68214099      -0.00040718      -0.00145352 </v>
   <v>      -0.00053533      35.87229450      -0.00069217 </v>
   <v>       0.00231799       0.00321441   -1304.95634734 </v>
  </varray>
  <energy>
   <i name="e_fr_energy">     -8.66322697 </i>
   <i name="e_wo_entrp">     -8.66612592 </i>
   <i name="e_0_energy">     -8.66419328 </i>
  </energy>
  <time name="totalsc">   11.39   11.39</time>
 </calculation>
 <calculation>
  <scstep>
   <time name="dav">    0.16    0.16</time>
   <time name="total">    0.37    0.37</time>
   <energy>
    <i name="alphaZ">     15.03510525 </i>
    <i name="ewald">   -453.21860739 </i>
    <i name="hartreedc">   -219.13564693 </i>
    <i name="XCdc">     46.55677546 </i>
    <i name="pawpsdc">   1143.39304551 </i>
    <i name="pawaedc">  -1148.37388096 </i>
    <i name="eentropy">      0.00289895 </i>
    <i name="bandstr">    -91.03913249 </i>
    <i name="atom">    696.92349690 </i>
    <i name="e_fr_energy">     -9.85594569 </i>
    <i name="e_wo_entrp">     -9.85884464 </i>
    <i name="e_0_energy">     -9.85691201 </i>
   </energy>
  </scstep>
  <scstep>
   <time name="diag">    0.03    0.03</time>
   <time name="diis">    0.09    0.09</time>
   <time name="orth">    0.00    0.00</time>
   <time name="total">    0.34    0.34</time>
   <energy>
    <i name="e_fr_energy">    -10.25869955 </i>
    <i name="e_wo_entrp">    -10.26159852 </i>
    <i name="e_0_energy">    -10.25966587 </i>
   </energy>
  </scstep>
  <scstep>
   <time name="diag">    0.03    0.03</time>
   <time name="diis">    0.09    0.09</time>
   <time name="orth">    0.00    0.00</time>
   <time name="total">    0.34    0.34</time>
   <energy>
    <i name="e_fr_energy">    -10.43053420 </i>
    <i name="e_wo_entrp">    -10.43343315 </i>
    <i name="e_0_energy">    -10.43150051 </i>
   </energy>
  </scstep>
  <scstep>
   <time name="diag">    0.03    0.03</time>
   <time name="diis">    0.09    0.09</time>
   <time name="orth">    0.00    0.00</time>
   <time name="total">    0.34    0.34</time>
   <energy>
    <i name="e_fr_energy">    -10.29279446 </i>
    <i name="e_wo_entrp">    -10.29569343 </i>
    <i name="e_0_energy">    -10.29376078 </i>
   </energy>
  </scstep>
  <scstep>
   <time name="diag">    0.03    0.03</time>
   <time name="diis">    0.09    0.09</time>
   <time name="orth">    0.00    0.00</time>
   <time name="total">    0.34    0.34</time>
   <energy>
    <i name="e_fr_energy">    -10.30099680 </i>
    <i name="e_wo_entrp">    -10.30389577 </i>
    <i name="e_0_energy">    -10.30196312 </i>
   </energy>
  </scstep>
  <scstep>
   <time name="diag">    0.03    0.03</time>
   <time name="diis">    0.09    0.09</time>
   <time name="orth">    0.00    0.00</time>
   <time name="total">    0.34    0.34</time>
   <energy>
    <i name="e_fr_energy">    -10.29998250 </i>
    <i name="e_wo_entrp">    -10.30288148 </i>
    <i name="e_0_energy">    -10.30094883 </i>
   </energy>
  </scstep>
  <scstep>
   <time name="diag">    0.03    0.03</time>
   <time name="diis">    0.09    0.09</time>
   <time name="orth">    0.00    0.00</time>
   <time name="total">    0.34    0.34</time>
   <energy>
    <i name="e_fr_energy">    -10.30000104 </i>
    <i name="e_wo_entrp">    -10.30290001 </i>
    <i name="e_0_energy">    -10.30096736 </i>
   </energy>
  </scstep>
  <scstep>
   <time name="diag">    0.03    0.03</time>
   <time name="diis">    0.09    0.09</time>
   <time name="orth">    0.00    0.00</time>
   <time name="total">    0.34    0.34</time>
   <energy>
    <i name="e_fr_energy">    -10.30008388 </i>
    <i name="e_wo_entrp">    -10.30298285 </i>
    <i name="e_0_energy">    -10.30105021 </i>
   </energy>
  </scstep>
  <scstep>
   <time name="diag">    0.03    0.03</time>
   <time name="diis">    0.10    0.10</time>
   <time name="orth">    0.00    0.00</time>
   <time name="total">    0.34    0.34</time>
   <energy>
    <i name="e_fr_energy">    -10.30013947 </i>
    <i name="e_wo_entrp">    -10.30303844 </i>
    <i name="e_0_energy">    -10.30110579 </i>
   </energy>
  </scstep>
  <scstep>
   <time name="diag">    0.03    0.03</time>
   <time name="diis">    0.09    0.09</time>
   <time name="orth">    0.00    0.00</time>
   <time name="total">    0.33    0.33</time>
   <energy>
    <i name="e_fr_energy">    -10.30017674 </i>
    <i name="e_wo_entrp">    -10.30307571 </i>
    <i name="e_0_energy">    -10.30114307 </i>
   </energy>
  </scstep>
  <scstep>
   <time name="diag">    0.03    0.03</time>
   <time name="diis">    0.09    0.09</time>
   <time name="orth">    0.00    0.00</time>
   <time name="total">    0.34    0.34</time>
   <energy>
    <i name="e_fr_energy">    -10.30017505 </i>
    <i name="e_wo_entrp">    -10.30307402 </i>
    <i name="e_0_energy">    -10.30114137 </i>
   </energy>
  </scstep>
  <scstep>
   <time name="diag">    0.03    0.03</time>
   <time name="diis">    0.09    0.09</time>
   <time name="orth">    0.00    0.00</time>
   <time name="total">    0.33    0.33</time>
   <energy>
    <i name="e_fr_energy">    -10.30015050 </i>
    <i name="e_wo_entrp">    -10.30304947 </i>
    <i name="e_0_energy">    -10.30111683 </i>
   </energy>
  </scstep>
  <scstep>
   <time name="diag">    0.03    0.03</time>
   <time name="diis">    0.09    0.09</time>
   <time name="orth">    0.00    0.00</time>
   <time name="total">    0.34    0.34</time>
   <energy>
    <i name="e_fr_energy">    -10.30017159 </i>
    <i name="e_wo_entrp">    -10.30307056 </i>
    <i name="e_0_energy">    -10.30113792 </i>
   </energy>
  </scstep>
  <scstep>
   <time name="diag">    0.03    0.03</time>
   <time name="diis">    0.09    0.09</time>
   <time name="orth">    0.00    0.00</time>
   <time name="total">    0.34    0.34</time>
   <energy>
    <i name="e_fr_energy">    -10.30018534 </i>
    <i name="e_wo_entrp">    -10.30308431 </i>
    <i name="e_0_energy">    -10.30115167 </i>
   </energy>
  </scstep>
  <scstep>
   <time name="diag">    0.03    0.03</time>
   <time name="diis">    0.09    0.09</time>
   <time name="orth">    0.00    0.00</time>
   <time name="total">    0.34    0.34</time>
   <energy>
    <i name="e_fr_energy">    -10.30021349 </i>
    <i name="e_wo_entrp">    -10.30311246 </i>
    <i name="e_0_energy">    -10.30117981 </i>
   </energy>
  </scstep>
  <scstep>
   <time name="diag">    0.03    0.03</time>
   <time name="diis">    0.09    0.09</time>
   <time name="orth">    0.00    0.00</time>
   <time name="total">    0.33    0.33</time>
   <energy>
    <i name="e_fr_energy">    -10.30020821 </i>
    <i name="e_wo_entrp">    -10.30310718 </i>
    <i name="e_0_energy">    -10.30117453 </i>
   </energy>
  </scstep>
  <scstep>
   <time name="diag">    0.03    0.03</time>
   <time name="diis">    0.09    0.09</time>
   <time name="orth">    0.00    0.00</time>
   <time name="total">    0.34    0.34</time>
   <energy>
    <i name="e_fr_energy">    -10.30020760 </i>
    <i name="e_wo_entrp">    -10.30310657 </i>
    <i name="e_0_energy">    -10.30117392 </i>
   </energy>
  </scstep>
  <scstep>
   <time name="diag">    0.03    0.03</time>
   <time name="diis">    0.09    0.09</time>
   <time name="orth">    0.00    0.00</time>
   <time name="total">    0.33    0.33</time>
   <energy>
    <i name="e_fr_energy">    -10.30021137 </i>
    <i name="e_wo_entrp">    -10.30311034 </i>
    <i name="e_0_energy">    -10.30117770 </i>
   </energy>
  </scstep>
  <scstep>
   <time name="diag">    0.03    0.03</time>
   <time name="diis">    0.09    0.09</time>
   <time name="orth">    0.00    0.00</time>
   <time name="total">    0.34    0.34</time>
   <energy>
    <i name="e_fr_energy">    -10.30021286 </i>
    <i name="e_wo_entrp">    -10.30311183 </i>
    <i name="e_0_energy">    -10.30117919 </i>
   </energy>
  </scstep>
  <scstep>
   <time name="diag">    0.03    0.03</time>
   <time name="diis">    0.09    0.09</time>
   <time name="orth">    0.00    0.00</time>
   <time name="total">    0.34    0.34</time>
   <energy>
    <i name="e_fr_energy">    -10.30021337 </i>
    <i name="e_wo_entrp">    -10.30311234 </i>
    <i name="e_0_energy">    -10.30117970 </i>
   </energy>
  </scstep>
  <scstep>
   <time name="diag">    0.03    0.03</time>
   <time name="diis">    0.09    0.09</time>
   <time name="orth">    0.00    0.00</time>
   <time name="total">    0.33    0.33</time>
   <energy>
    <i name="e_fr_energy">    -10.30021767 </i>
    <i name="e_wo_entrp">    -10.30311664 </i>
    <i name="e_0_energy">    -10.30118400 </i>
   </energy>
  </scstep>
  <scstep>
   <time name="diag">    0.03    0.03</time>
   <time name="diis">    0.08    0.08</time>
   <time name="orth">    0.00    0.00</time>
   <time name="total">    0.34    0.34</time>
   <energy>
    <i name="e_fr_energy">    -10.30021938 </i>
    <i name="e_wo_entrp">    -10.30311835 </i>
    <i name="e_0_energy">    -10.30118571 </i>
   </energy>
  </scstep>
  <scstep>
   <time name="diag">    0.03    0.03</time>
   <time name="diis">    0.09    0.09</time>
   <time name="orth">    0.00    0.00</time>
   <time name="total">    0.28    0.28</time>
   <energy>
    <i name="alphaZ">     15.03510525 </i>
    <i name="ewald">   -453.21860739 </i>
    <i name="hartreedc">   -221.71444875 </i>
    <i name="XCdc">     46.61502789 </i>
    <i name="pawpsdc">   1799.07914243 </i>
    <i name="pawaedc">  -1804.29499823 </i>
    <i name="eentropy">      0.00289897 </i>
    <i name="bandstr">    -88.72783559 </i>
    <i name="atom">    696.92349690 </i>
    <i name="e_fr_energy">    -10.30021852 </i>
    <i name="e_wo_entrp">    -10.30311749 </i>
    <i name="e_0_energy">    -10.30118484 </i>
   </energy>
  </scstep>
  <structure>
   <crystal>
    <varray name="basis" >
     <v>       2.00000000       0.00000000       0.00000000 </v>
     <v>       0.00000000       3.00000000       0.00000000 </v>
     <v>       0.00000000       0.00000000       4.00000000 </v>
    </varray>
    <i name="volume">     24.00000000 </i>
    <varray name="rec_basis" >
     <v>       0.50000000       0.00000000       0.00000000 </v>
     <v>       0.00000000       0.33333333       0.00000000 </v>
     <v>       0.00000000       0.00000000       0.25000000 </v>
    </varray>
   </crystal>
   <varray name="positions" >
    <v>       0.50000009       0.50000011       0.58735779 </v>
    <v>       0.49999991       0.49999989       0.23501875 </v>
   </varray>
  </structure>
  <varray name="forces" >
   <v>      -0.00000305       0.00000334      -6.94111320 </v>
   <v>       0.00000305      -0.00000334       6.94111320 </v>
  </varray>
  <varray name="stress" >
   <v>     544.80436953      -0.00041889      -0.00047742 </v>
   <v>      -0.00045565      31.08257001      -0.00028688 </v>
   <v>       0.00099054       0.00122037   -1057.67062880 </v>
  </varray>
  <energy>
   <i name="e_fr_energy">    -10.30021852 </i>
   <i name="e_wo_entrp">    -10.30311749 </i>
   <i name="e_0_energy">    -10.30118484 </i>
  </energy>
  <time name="totalsc">   10.00   10.01</time>
 </calculation>
 <calculation>
  <scstep>
   <time name="dav">    0.16    0.16</time>
   <time name="total">    0.40    0.40</time>
   <energy>
    <i name="alphaZ">     15.03510525 </i>
    <i name="ewald">   -423.88725210 </i>
    <i name="hartreedc">   -243.35426353 </i>
    <i name="XCdc">     47.06235454 </i>
    <i name="pawpsdc">   1799.07798860 </i>
    <i name="pawaedc">  -1804.29384588 </i>
    <i name="eentropy">      0.00289897 </i>
    <i name="bandstr">    -97.47288857 </i>
    <i name="atom">    696.92349690 </i>
    <i name="e_fr_energy">    -10.90640582 </i>
    <i name="e_wo_entrp">    -10.90930480 </i>
    <i name="e_0_energy">    -10.90737215 </i>
   </energy>
  </scstep>
  <scstep>
   <time name="diag">    0.03    0.03</time>
   <time name="diis">    0.10    0.10</time>
   <time name="orth">    0.00    0.00</time>
   <time name="total">    0.36    0.36</time>
   <energy>
    <i name="e_fr_energy">    -10.98304057 </i>
    <i name="e_wo_entrp">    -10.98593956 </i>
    <i name="e_0_energy">    -10.98400690 </i>
   </energy>
  </scstep>
  <scstep>
   <time name="diag">    0.03    0.03</time>
   <time name="diis">    0.10    0.10</time>
   <time name="orth">    0.00    0.00</time>
   <time name="total">    0.36    0.36</time>
   <energy>
    <i name="e_fr_energy">    -11.01328307 </i>
    <i name="e_wo_entrp">    -11.01618204 </i>
    <i name="e_0_energy">    -11.01424939 </i>
   </energy>
  </scstep>
  <scstep>
   <time name="diag">    0.03    0.03</time>
   <time name="diis">    0.10    0.10</time>
   <time name="orth">    0.00    0.00</time>
   <time name="total">    0.39    0.39</time>
   <energy>
    <i name="e_fr_energy">    -10.98637043 </i>
    <i name="e_wo_entrp">    -10.98926941 </i>
    <i name="e_0_energy">    -10.98733675 </i>
   </energy>
  </scstep>
  <scstep>
   <time name="diag">    0.04    0.04</time>
   <time name="diis">    0.12    0.12</time>
   <time name="orth">    0.00    0.00</time>
   <time name="total">    0.44    0.44</time>
   <energy>
    <i name="e_fr_energy">    -10.97945767 </i>
    <i name="e_wo_entrp">    -10.98235665 </i>
    <i name="e_0_energy">    -10.98042399 </i>
   </energy>
  </scstep>
  <scstep>
   <time name="diag">    0.04    0.04</time>
   <time name="diis">    0.12    0.12</time>
   <time name="orth">    0.00    0.00</time>
   <time name="total">    0.43    0.43</time>
   <energy>
    <i name="e_fr_energy">    -10.97964951 </i>
    <i name="e_wo_entrp">    -10.98254849 </i>
    <i name="e_0_energy">    -10.98061584 </i>
   </energy>
  </scstep>
  <scstep>
   <time name="diag">    0.03    0.03</time>
   <time name="diis">    0.11    0.11</time>
   <time name="orth">    0.00    0.00</time>
   <time name="total">    0.42    0.42</time>
   <energy>
    <i name="e_fr_energy">    -10.97965149 </i>
    <i name="e_wo_entrp">    -10.98255047 </i>
    <i name="e_0_energy">    -10.98061781 </i>
   </energy>
  </scstep>
  <scstep>
   <time name="diag">    0.04    0.04</time>
   <time name="diis">    0.12    0.12</time>
   <time name="orth">    0.00    0.00</time>
   <time name="total">    0.47    0.47</time>
   <energy>
    <i name="e_fr_energy">    -10.97972647 </i>
    <i name="e_wo_entrp">    -10.98262545 </i>
    <i name="e_0_energy">    -10.98069280 </i>
   </energy>
  </scstep>
  <scstep>
   <time name="diag">    0.03    0.03</time>
   <time name="diis">    0.10    0.10</time>
   <time name="orth">    0.00    0.00</time>
   <time name="total">    0.38    0.38</time>
   <energy>
    <i name="e_fr_energy">    -10.97970209 </i>
    <i name="e_wo_entrp">    -10.98260107 </i>
    <i name="e_0_energy">    -10.98066842 </i>
   </energy>
  </scstep>
  <scstep>
   <time name="diag">    0.03    0.03</time>
   <time name="diis">    0.12    0.12</time>
   <time name="orth">    0.00    0.00</time>
   <time name="total">    0.41    0.41</time>
   <energy>
    <i name="e_fr_energy">    -10.97972776 </i>
    <i name="e_wo_entrp">    -10.98262674 </i>
    <i name="e_0_energy">    -10.98069409 </i>
   </energy>
  </scstep>
  <scstep>
   <time name="diag">    0.04    0.04</time>
   <time name="diis">    0.12    0.12</time>
   <time name="orth">    0.00    0.00</time>
   <time name="total">    0.46    0.46</time>
   <energy>
    <i name="e_fr_energy">    -10.97969364 </i>
    <i name="e_wo_entrp">    -10.98259262 </i>
    <i name="e_0_energy">    -10.98065996 </i>
   </energy>
  </scstep>
  <scstep>
   <time name="diag">    0.04    0.04</time>
   <time name="diis">    0.12    0.12</time>
   <time name="orth">    0.00    0.00</time>
   <time name="total">    0.47    0.47</time>
   <energy>
    <i name="e_fr_energy">    -10.97973234 </i>
    <i name="e_wo_entrp">    -10.98263133 </i>
    <i name="e_0_energy">    -10.98069867 </i>
   </energy>
  </scstep>
  <scstep>
   <time name="diag">    0.04    0.04</time>
   <time name="diis">    0.12    0.12</time>
   <time name="orth">    0.01    0.01</time>
   <time name="total">    0.47    0.47</time>
   <energy>
    <i name="e_fr_energy">    -10.97974441 </i>
    <i name="e_wo_entrp">    -10.98264339 </i>
    <i name="e_0_energy">    -10.98071073 </i>
   </energy>
  </scstep>
  <scstep>
   <time name="diag">    0.04    0.04</time>
   <time name="diis">    0.14    0.14</time>
   <time name="orth">    0.01    0.01</time>
   <time name="total">    0.48    0.48</time>
   <energy>
    <i name="e_fr_energy">    -10.97975065 </i>
    <i name="e_wo_entrp">    -10.98264963 </i>
    <i name="e_0_energy">    -10.98071698 </i>
   </energy>
  </scstep>
  <scstep>
   <time name="diag">    0.04    0.04</time>
   <time name="diis">    0.14    0.14</time>
   <time name="orth">    0.01    0.01</time>
   <time name="total">    0.50    0.50</time>
   <energy>
    <i name="e_fr_energy">    -10.97974941 </i>
    <i name="e_wo_entrp">    -10.98264839 </i>
    <i name="e_0_energy">    -10.98071574 </i>
   </energy>
  </scstep>
  <scstep>
   <time name="diag">    0.04    0.04</time>
   <time name="diis">    0.13    0.13</time>
   <time name="orth">    0.01    0.01</time>
   <time name="total">    0.50    0.50</time>
   <energy>
    <i name="e_fr_energy">    -10.97974563 </i>
    <i name="e_wo_entrp">    -10.98264461 </i>
    <i name="e_0_energy">    -10.98071195 </i>
   </energy>
  </scstep>
  <scstep>
   <time name="diag">    0.04    0.04</time>
   <time name="diis">    0.13    0.13</time>
   <time name="orth">    0.00    0.00</time>
   <time name="total">    0.45    0.45</time>
   <energy>
    <i name="e_fr_energy">    -10.97975258 </i>
    <i name="e_wo_entrp">    -10.98265156 </i>
    <i name="e_0_energy">    -10.98071891 </i>
   </energy>
  </scstep>
  <scstep>
   <time name="diag">    0.03    0.03</time>
   <time name="diis">    0.10    0.10</time>
   <time name="orth">    0.00    0.00</time>
   <time name="total">    0.39    0.39</time>
   <energy>
    <i name="e_fr_energy">    -10.97975311 </i>
    <i name="e_wo_entrp">    -10.98265209 </i>
    <i name="e_0_energy">    -10.98071944 </i>
   </energy>
  </scstep>
  <scstep>
   <time name="diag">    0.03    0.03</time>
   <time name="diis">    0.10    0.10</time>
   <time name="orth">    0.00    0.00</time>
   <time name="total">    0.37    0.37</time>
   <energy>
    <i name="e_fr_energy">    -10.97975300 </i>
    <i name="e_wo_entrp">    -10.98265198 </i>
    <i name="e_0_energy">    -10.98071933 </i>
   </energy>
  </scstep>
  <scstep>
   <time name="diag">    0.03    0.03</time>
   <time name="diis">    0.10    0.10</time>
   <time name="orth">    0.00    0.00</time>
   <time name="total">    0.37    0.37</time>
   <energy>
    <i name="e_fr_energy">    -10.97975383 </i>
    <i name="e_wo_entrp">    -10.98265281 </i>
    <i name="e_0_energy">    -10.98072016 </i>
   </energy>
  </scstep>
  <scstep>
   <time name="diag">    0.03    0.03</time>
   <time name="diis">    0.10    0.10</time>
   <time name="orth">    0.00    0.00</time>
   <time name="total">    0.37    0.37</time>
   <energy>
    <i name="e_fr_energy">    -10.97975381 </i>
    <i name="e_wo_entrp">    -10.98265279 </i>
    <i name="e_0_energy">    -10.98072013 </i>
   </energy>
  </scstep>
  <scstep>
   <time name="diag">    0.03    0.03</time>
   <time name="diis">    0.10    0.10</time>
   <time name="orth">    0.00    0.00</time>
   <time name="total">    0.37    0.37</time>
   <energy>
    <i name="e_fr_energy">    -10.97975456 </i>
    <i name="e_wo_entrp">    -10.98265354 </i>
    <i name="e_0_energy">    -10.98072089 </i>
   </energy>
  </scstep>
  <scstep>
   <time name="diag">    0.03    0.03</time>
   <time name="diis">    0.10    0.10</time>
   <time name="orth">    0.00    0.00</time>
   <time name="total">    0.37    0.37</time>
   <energy>
    <i name="e_fr_energy">    -10.97975366 </i>
    <i name="e_wo_entrp">    -10.98265264 </i>
    <i name="e_0_energy">    -10.98071999 </i>
   </energy>
  </scstep>
  <scstep>
   <time name="diag">    0.03    0.03</time>
   <time name="diis">    0.10    0.10</time>
   <time name="orth">    0.00    0.00</time>
   <time name="total">    0.38    0.38</time>
   <energy>
    <i name="e_fr_energy">    -10.97975590 </i>
    <i name="e_wo_entrp">    -10.98265488 </i>
    <i name="e_0_energy">    -10.98072222 </i>
   </energy>
  </scstep>
  <scstep>
   <time name="diag">    0.04    0.04</time>
   <time name="diis">    0.13    0.13</time>
   <time name="orth">    0.00    0.00</time>
   <time name="total">    0.45    0.45</time>
   <energy>
    <i name="e_fr_energy">    -10.97975384 </i>
    <i name="e_wo_entrp">    -10.98265282 </i>
    <i name="e_0_energy">    -10.98072017 </i>
   </energy>
  </scstep>
  <scstep>
   <time name="diag">    0.03    0.03</time>
   <time name="diis">    0.11    0.11</time>
   <time name="orth">    0.00    0.00</time>
   <time name="total">    0.40    0.40</time>
   <energy>
    <i name="e_fr_energy">    -10.97975506 </i>
    <i name="e_wo_entrp">    -10.98265404 </i>
    <i name="e_0_energy">    -10.98072139 </i>
   </energy>
  </scstep>
  <scstep>
   <time name="diag">    0.03    0.03</time>
   <time name="diis">    0.10    0.10</time>
   <time name="orth">    0.00    0.00</time>
   <time name="total">    0.37    0.37</time>
   <energy>
    <i name="e_fr_energy">    -10.97975561 </i>
    <i name="e_wo_entrp">    -10.98265459 </i>
    <i name="e_0_energy">    -10.98072194 </i>
   </energy>
  </scstep>
  <scstep>
   <time name="diag">    0.04    0.04</time>
   <time name="diis">    0.09    0.09</time>
   <time name="orth">    0.00    0.00</time>
   <time name="total">    0.32    0.32</time>
   <energy>
    <i name="alphaZ">     15.03510525 </i>
    <i name="ewald">   -423.88725210 </i>
    <i name="hartreedc">   -246.02836670 </i>
    <i name="XCdc">     47.29829249 </i>
    <i name="pawpsdc">   2573.68673689 </i>
    <i name="pawaedc">  -2579.21561956 </i>
    <i name="eentropy">      0.00289898 </i>
    <i name="bandstr">    -94.79504865 </i>
    <i name="atom">    696.92349690 </i>
    <i name="e_fr_energy">    -10.97975650 </i>
    <i name="e_wo_entrp">    -10.98265548 </i>
    <i name="e_0_energy">    -10.98072282 </i>
   </energy>
  </scstep>
  <structure>
   <crystal>
    <varray name="basis" >
     <v>       2.00000000       0.00000000       0.00000000 </v>
     <v>       0.00000000       3.00000000       0.00000000 </v>
     <v>       0.00000000       0.00000000       4.00000000 </v>
    </varray>
    <i name="volume">     24.00000000 </i>
    <varray name="rec_basis" >
     <v>       0.50000000       0.00000000       0.00000000 </v>
     <v>       0.00000000       0.33333333       0.00000000 </v>
     <v>       0.00000000       0.00000000       0.25000000 </v>
    </varray>
   </crystal>
   <varray name="positions" >
    <v>       0.50000004       0.50000004       0.57134583 </v>
    <v>       0.49999996       0.49999996       0.25103071 </v>
   </varray>
  </structure>
  <varray name="forces" >
   <v>       0.00000454       0.00001205      -2.70978853 </v>
   <v>      -0.00000454      -0.00001205       2.70978853 </v>
  </varray>
  <varray name="stress" >
   <v>     510.48506519       0.00000665      -0.00032108 </v>
   <v>      -0.00002727      29.92345258      -0.00001791 </v>
   <v>       0.00115242       0.00149665    -494.12133238 </v>
  </varray>
  <energy>
   <i name="e_fr_energy">    -10.97975650 </i>
   <i name="e_wo_entrp">    -10.98265548 </i>
   <i name="e_0_energy">    -10.98072282 </i>
  </energy>
  <time name="totalsc">   14.69   14.69</time>
 </calculation>
 <calculation>
  <scstep>
   <time name="dav">    0.19    0.19</time>
   <time name="total">    0.49    0.49</time>
   <energy>
    <i name="alphaZ">     15.03510525 </i>
    <i name="ewald">   -415.38084955 </i>
    <i name="hartreedc">   -252.01096714 </i>
    <i name="XCdc">     47.42801864 </i>
    <i name="pawpsdc">   2573.68733565 </i>
    <i name="pawaedc">  -2579.21621550 </i>
    <i name="eentropy">      0.00289898 </i>
    <i name="bandstr">    -97.49812903 </i>
    <i name="atom">    696.92349690 </i>
    <i name="e_fr_energy">    -11.02930579 </i>
    <i name="e_wo_entrp">    -11.03220477 </i>
    <i name="e_0_energy">    -11.03027211 </i>
   </energy>
  </scstep>
  <scstep>
   <time name="diag">    0.04    0.04</time>
   <time name="diis">    0.11    0.11</time>
   <time name="orth">    0.00    0.00</time>
   <time name="total">    0.43    0.43</time>
   <energy>
    <i name="e_fr_energy">    -11.03371747 </i>
    <i name="e_wo_entrp">    -11.03661645 </i>
    <i name="e_0_energy">    -11.03468379 </i>
   </energy>
  </scstep>
  <scstep>
   <time name="diag">    0.04    0.04</time>
   <time name="diis">    0.11    0.11</time>
   <time name="orth">    0.00    0.00</time>
   <time name="total">    0.42    0.42</time>
   <energy>
    <i name="e_fr_energy">    -11.03458535 </i>
    <i name="e_wo_entrp">    -11.03748433 </i>
    <i name="e_0_energy">    -11.03555168 </i>
   </energy>
  </scstep>
  <scstep>
   <time name="diag">    0.03    0.03</time>
   <time name="diis">    0.12    0.12</time>
   <time name="orth">    0.00    0.00</time>
   <time name="total">    0.43    0.43</time>
   <energy>
    <i name="e_fr_energy">    -11.03441497 </i>
    <i name="e_wo_entrp">    -11.03731396 </i>
    <i name="e_0_energy">    -11.03538130 </i>
   </energy>
  </scstep>
  <scstep>
   <time name="diag">    0.04    0.04</time>
   <time name="diis">    0.14    0.14</time>
   <time name="orth">    0.01    0.01</time>
   <time name="total">    0.51    0.51</time>
   <energy>
    <i name="e_fr_energy">    -11.03347626 </i>
    <i name="e_wo_entrp">    -11.03637524 </i>
    <i name="e_0_energy">    -11.03444259 </i>
   </energy>
  </scstep>
  <scstep>
   <time name="diag">    0.04    0.04</time>
   <time name="diis">    0.13    0.13</time>
   <time name="orth">    0.00    0.00</time>
   <time name="total">    0.48    0.48</time>
   <energy>
    <i name="e_fr_energy">    -11.03347282 </i>
    <i name="e_wo_entrp">    -11.03637180 </i>
    <i name="e_0_energy">    -11.03443915 </i>
   </energy>
  </scstep>
  <scstep>
   <time name="diag">    0.04    0.04</time>
   <time name="diis">    0.12    0.12</time>
   <time name="orth">    0.00    0.00</time>
   <time name="total">    0.46    0.46</time>
   <energy>
    <i name="e_fr_energy">    -11.03353002 </i>
    <i name="e_wo_entrp">    -11.03642900 </i>
    <i name="e_0_energy">    -11.03449635 </i>
   </energy>
  </scstep>
  <scstep>
   <time name="diag">    0.04    0.04</time>
   <time name="diis">    0.13    0.13</time>
   <time name="orth">    0.00    0.00</time>
   <time name="total">    0.48    0.48</time>
   <energy>
    <i name="e_fr_energy">    -11.03352759 </i>
    <i name="e_wo_entrp">    -11.03642657 </i>
    <i name="e_0_energy">    -11.03449392 </i>
   </energy>
  </scstep>
  <scstep>
   <time name="diag">    0.04    0.04</time>
   <time name="diis">    0.12    0.12</time>
   <time name="orth">    0.00    0.00</time>
   <time name="total">    0.47    0.47</time>
   <energy>
    <i name="e_fr_energy">    -11.03353432 </i>
    <i name="e_wo_entrp">    -11.03643330 </i>
    <i name="e_0_energy">    -11.03450065 </i>
   </energy>
  </scstep>
  <scstep>
   <time name="diag">    0.04    0.04</time>
   <time name="diis">    0.12    0.12</time>
   <time name="orth">    0.00    0.00</time>
   <time name="total">    0.46    0.46</time>
   <energy>
    <i name="e_fr_energy">    -11.03354600 </i>
    <i name="e_wo_entrp">    -11.03644499 </i>
    <i name="e_0_energy">    -11.03451233 </i>
   </energy>
  </scstep>
  <scstep>
   <time name="diag">    0.04    0.04</time>
   <time name="diis">    0.12    0.12</time>
   <time name="orth">    0.00    0.00</time>
   <time name="total">    0.44    0.44</time>
   <energy>
    <i name="e_fr_energy">    -11.03353979 </i>
    <i name="e_wo_entrp">    -11.03643877 </i>
    <i name="e_0_energy">    -11.03450612 </i>
   </energy>
  </scstep>
  <scstep>
   <time name="diag">    0.03    0.03</time>
   <time name="diis">    0.11    0.11</time>
   <time name="orth">    0.00    0.00</time>
   <time name="total">    0.41    0.41</time>
   <energy>
    <i name="e_fr_energy">    -11.03354436 </i>
    <i name="e_wo_entrp">    -11.03644334 </i>
    <i name="e_0_energy">    -11.03451069 </i>
   </energy>
  </scstep>
  <scstep>
   <time name="diag">    0.04    0.04</time>
   <time name="diis">    0.13    0.13</time>
   <time name="orth">    0.01    0.01</time>
   <time name="total">    0.46    0.46</time>
   <energy>
    <i name="e_fr_energy">    -11.03355269 </i>
    <i name="e_wo_entrp">    -11.03645167 </i>
    <i name="e_0_energy">    -11.03451902 </i>
   </energy>
  </scstep>
  <scstep>
   <time name="diag">    0.04    0.04</time>
   <time name="diis">    0.13    0.13</time>
   <time name="orth">    0.00    0.00</time>
   <time name="total">    0.51    0.51</time>
   <energy>
    <i name="e_fr_energy">    -11.03355434 </i>
    <i name="e_wo_entrp">    -11.03645333 </i>
    <i name="e_0_energy">    -11.03452067 </i>
   </energy>
  </scstep>
  <scstep>
   <time name="diag">    0.04    0.04</time>
   <time name="diis">    0.13    0.13</time>
   <time name="orth">    0.00    0.00</time>
   <time name="total">    0.50    0.50</time>
   <energy>
    <i name="e_fr_energy">    -11.03355438 </i>
    <i name="e_wo_entrp">    -11.03645337 </i>
    <i name="e_0_energy">    -11.03452071 </i>
   </energy>
  </scstep>
  <scstep>
   <time name="diag">    0.04    0.04</time>
   <time name="diis">    0.11    0.11</time>
   <time name="orth">    0.00    0.00</time>
   <time name="total">    0.43    0.43</time>
   <energy>
    <i name="e_fr_energy">    -11.03355811 </i>
    <i name="e_wo_entrp">    -11.03645710 </i>
    <i name="e_0_energy">    -11.03452444 </i>
   </energy>
  </scstep>
  <scstep>
   <time name="diag">    0.04    0.04</time>
   <time name="diis">    0.13    0.13</time>
   <time name="orth">    0.00    0.00</time>
   <time name="total">    0.35    0.35</time>
   <energy>
    <i name="alphaZ">     15.03510525 </i>
    <i name="ewald">   -415.38084955 </i>
    <i name="hartreedc">   -252.83708644 </i>
    <i name="XCdc">     47.49852393 </i>
    <i name="pawpsdc">   2825.28732210 </i>
    <i name="pawaedc">  -2830.92481887 </i>
    <i name="eentropy">      0.00289898 </i>
    <i name="bandstr">    -96.63814969 </i>
    <i name="atom">    696.92349690 </i>
    <i name="e_fr_energy">    -11.03355737 </i>
    <i name="e_wo_entrp">    -11.03645636 </i>
    <i name="e_0_energy">    -11.03452370 </i>
   </energy>
  </scstep>
  <structure>
   <crystal>
    <varray name="basis" >
     <v>       2.00000000       0.00000000       0.00000000 </v>
     <v>       0.00000000       3.00000000       0.00000000 </v>
     <v>       0.00000000       0.00000000       4.00000000 </v>
    </varray>
    <i name="volume">     24.00000000 </i>
    <varray name="rec_basis" >
     <v>       0.50000000       0.00000000       0.00000000 </v>
     <v>       0.00000000       0.33333333       0.00000000 </v>
     <v>       0.00000000       0.00000000       0.25000000 </v>
    </varray>
   </crystal>
   <varray name="positions" >
    <v>       0.50000002       0.50000003       0.56737238 </v>
    <v>       0.49999998       0.49999997       0.25500416 </v>
   </varray>
  </structure>
  <varray name="forces" >
   <v>       0.00000540       0.00001237      -0.56914280 </v>
   <v>      -0.00000540      -0.00001237       0.56914280 </v>
  </varray>
  <varray name="stress" >
   <v>     502.10632829       0.00013096      -0.00021912 </v>
   <v>       0.00010310      30.03694537       0.00013928 </v>
   <v>       0.00125094       0.00164350    -279.23180141 </v>
  </varray>
  <energy>
   <i name="e_fr_energy">    -11.03355737 </i>
   <i name="e_wo_entrp">    -11.03645636 </i>
   <i name="e_0_energy">    -11.03452370 </i>
  </energy>
  <time name="totalsc">   10.58   10.58</time>
 </calculation>
 <calculation>
  <scstep>
   <time name="dav">    0.18    0.18</time>
   <time name="total">    0.43    0.43</time>
   <energy>
    <i name="alphaZ">     15.03510525 </i>
    <i name="ewald">   -413.28410061 </i>
    <i name="hartreedc">   -254.29216413 </i>
    <i name="XCdc">     47.53049070 </i>
    <i name="pawpsdc">   2825.29110268 </i>
    <i name="pawaedc">  -2830.92859466 </i>
    <i name="eentropy">      0.00289898 </i>
    <i name="bandstr">    -97.31363833 </i>
    <i name="atom">    696.92349690 </i>
    <i name="e_fr_energy">    -11.03540322 </i>
    <i name="e_wo_entrp">    -11.03830220 </i>
    <i name="e_0_energy">    -11.03636955 </i>
   </energy>
  </scstep>
  <scstep>
   <time name="diag">    0.03    0.03</time>
   <time name="diis">    0.10    0.10</time>
   <time name="orth">    0.00    0.00</time>
   <time name="total">    0.37    0.37</time>
   <energy>
    <i name="e_fr_energy">    -11.03563819 </i>
    <i name="e_wo_entrp">    -11.03853718 </i>
    <i name="e_0_energy">    -11.03660452 </i>
   </energy>
  </scstep>
  <scstep>
   <time name="diag">    0.03    0.03</time>
   <time name="diis">    0.10    0.10</time>
   <time name="orth">    0.00    0.00</time>
   <time name="total">    0.38    0.38</time>
   <energy>
    <i name="e_fr_energy">    -11.03561641 </i>
    <i name="e_wo_entrp">    -11.03851540 </i>
    <i name="e_0_energy">    -11.03658274 </i>
   </energy>
  </scstep>
  <scstep>
   <time name="diag">    0.03    0.03</time>
   <time name="diis">    0.11    0.11</time>
   <time name="orth">    0.00    0.00</time>
   <time name="total">    0.41    0.41</time>
   <energy>
    <i name="e_fr_energy">    -11.03561333 </i>
    <i name="e_wo_entrp">    -11.03851232 </i>
    <i name="e_0_energy">    -11.03657966 </i>
   </energy>
  </scstep>
  <scstep>
   <time name="diag">    0.03    0.03</time>
   <time name="diis">    0.11    0.11</time>
   <time name="orth">    0.00    0.00</time>
   <time name="total">    0.40    0.40</time>
   <energy>
    <i name="e_fr_energy">    -11.03554910 </i>
    <i name="e_wo_entrp">    -11.03844808 </i>
    <i name="e_0_energy">    -11.03651543 </i>
   </energy>
  </scstep>
  <scstep>
   <time name="diag">    0.03    0.03</time>
   <time name="diis">    0.10    0.10</time>
   <time name="orth">    0.00    0.00</time>
   <time name="total">    0.38    0.38</time>
   <energy>
    <i name="e_fr_energy">    -11.03558566 </i>
    <i name="e_wo_entrp">    -11.03848465 </i>
    <i name="e_0_energy">    -11.03655199 </i>
   </energy>
  </scstep>
  <scstep>
   <time name="diag">    0.03    0.03</time>
   <time name="diis">    0.11    0.11</time>
   <time name="orth">    0.00    0.00</time>
   <time name="total">    0.38    0.38</time>
   <energy>
    <i name="e_fr_energy">    -11.03559226 </i>
    <i name="e_wo_entrp">    -11.03849124 </i>
    <i name="e_0_energy">    -11.03655858 </i>
   </energy>
  </scstep>
  <scstep>
   <time name="diag">    0.04    0.04</time>
   <time name="diis">    0.12    0.12</time>
   <time name="orth">    0.00    0.00</time>
   <time name="total">    0.45    0.45</time>
   <energy>
    <i name="e_fr_energy">    -11.03560621 </i>
    <i name="e_wo_entrp">    -11.03850519 </i>
    <i name="e_0_energy">    -11.03657253 </i>
   </energy>
  </scstep>
  <scstep>
   <time name="diag">    0.04    0.04</time>
   <time name="diis">    0.11    0.11</time>
   <time name="orth">    0.00    0.00</time>
   <time name="total">    0.43    0.43</time>
   <energy>
    <i name="e_fr_energy">    -11.03560702 </i>
    <i name="e_wo_entrp">    -11.03850600 </i>
    <i name="e_0_energy">    -11.03657335 </i>
   </energy>
  </scstep>
  <scstep>
   <time name="diag">    0.03    0.03</time>
   <time name="diis">    0.10    0.10</time>
   <time name="orth">    0.00    0.00</time>
   <time name="total">    0.40    0.40</time>
   <energy>
    <i name="e_fr_energy">    -11.03562167 </i>
    <i name="e_wo_entrp">    -11.03852065 </i>
    <i name="e_0_energy">    -11.03658800 </i>
   </energy>
[...]
       <r>     5.8614     0.0000     0.0000 </r>
       <r>     6.0071     0.0000     0.0000 </r>
       <r>     6.1528     0.0000     0.0000 </r>
       <r>     6.2985     0.0000     0.0000 </r>
       <r>     6.4442     0.0000     0.0000 </r>
       <r>     6.5899     0.0000     0.0000 </r>
       <r>     6.7356     0.0000     0.0000 </r>
       <r>     6.8813     0.0000     0.0000 </r>
       <r>     7.0270     0.0000     0.0000 </r>
       <r>     7.1727     0.0000     0.0000 </r>
       <r>     7.3184     0.0000     0.0000 </r>
       <r>     7.4641     0.0000     0.0000 </r>
       <r>     7.6098     0.0000     0.0000 </r>
       <r>     7.7555     0.0000     0.0000 </r>
       <r>     7.9012     0.0000     0.0000 </r>
       <r>     8.0469     0.0000     0.0000 </r>
       <r>     8.1926     0.0000     0.0000 </r>
       <r>     8.3383     0.0000     0.0000 </r>
       <r>     8.4840     0.0000     0.0000 </r>
       <r>     8.6297     0.0000     0.0000 </r>
       <r>     8.7754     0.0000     0.0000 </r>
       <r>     8.9211     0.0000     0.0000 </r>
       <r>     9.0668     0.0000     0.0000 </r>
       <r>     9.2125     0.0000     0.0000 </r>
       <r>     9.3582     0.0000     0.0000 </r>
       <r>     9.5039     0.0000     0.0000 </r>
       <r>     9.6496     0.0000     0.0000 </r>
       <r>     9.7953     0.0000     0.0000 </r>
       <r>     9.9410     0.0000     0.0000 </r>
       <r>    10.0867     0.0000     0.0000 </r>
       <r>    10.2324     0.0000     0.0000 </r>
       <r>    10.3781     0.0000     0.0000 </r>
       <r>    10.5238     0.0000     0.0000 </r>
       <r>    10.6694     0.0000     0.0000 </r>
       <r>    10.8151     0.0000     0.0000 </r>
       <r>    10.9608     0.0000     0.0000 </r>
       <r>    11.1065     0.0000     0.0000 </r>
       <r>    11.2522     0.0000     0.0000 </r>
       <r>    11.3979     0.0000     0.0000 </r>
       <r>    11.5436     0.0000     0.0000 </r>
       <r>    11.6893     0.0000     0.0000 </r>
       <r>    11.8350     0.0000     0.0000 </r>
       <r>    11.9807     0.0000     0.0000 </r>
       <r>    12.1264     0.0000     0.0000 </r>
       <r>    12.2721     0.0000     0.0000 </r>
       <r>    12.4178     0.0000     0.0000 </r>
       <r>    12.5635     0.0000     0.0000 </r>
       <r>    12.7092     0.0000     0.0000 </r>
       <r>    12.8549     0.0000     0.0000 </r>
       <r>    13.0006     0.0000     0.0000 </r>
       <r>    13.1463     0.0000     0.0000 </r>
       <r>    13.2920     0.0000     0.0000 </r>
       <r>    13.4377     0.0000     0.0000 </r>
       <r>    13.5834     0.0000     0.0000 </r>
       <r>    13.7291     0.0000     0.0000 </r>
       <r>    13.8748     0.0000     0.0000 </r>
       <r>    14.0205     0.0000     0.0000 </r>
       <r>    14.1662     0.0000     0.0000 </r>
       <r>    14.3119     0.0000     0.0000 </r>
       <r>    14.4576     0.0000     0.0000 </r>
       <r>    14.6033     0.0000     0.0000 </r>
       <r>    14.7490     0.0000     0.0000 </r>
       <r>    14.8947     0.0000     0.0000 </r>
       <r>    15.0404     0.0000     0.0000 </r>
       <r>    15.1861     0.0000     0.0000 </r>
       <r>    15.3318     0.0000     0.0000 </r>
       <r>    15.4775     0.0000     0.0000 </r>
       <r>    15.6232     0.0000     0.0000 </r>
       <r>    15.7689     0.0000     0.0000 </r>
       <r>    15.9146     0.0000     0.0000 </r>
       <r>    16.0603     0.0000     0.0000 </r>
       <r>    16.2060     0.0000     0.0000 </r>
       <r>    16.3517     0.0000     0.0000 </r>
       <r>    16.4974     0.0000     0.0000 </r>
       <r>    16.6431     0.0000     0.0000 </r>
       <r>    16.7888     0.0000     0.0000 </r>
       <r>    16.9345     0.0000     0.0000 </r>
       <r>    17.0802     0.0000     0.0000 </r>
       <r>    17.2259     0.0000     0.0000 </r>
       <r>    17.3716     0.0000     0.0000 </r>
       <r>    17.5173     0.0000     0.0000 </r>
       <r>    17.6630     0.0000     0.0000 </r>
       <r>    17.8087     0.0000     0.0000 </r>
       <r>    17.9544     0.0000     0.0000 </r>
      </set>
      <set comment="spin 4">
       <r>   -25.7554     0.0000     0.0000 </r>
       <r>   -25.6098     0.0000     0.0000 </r>
       <r>   -25.4641     0.0000     0.0000 </r>
       <r>   -25.3184     0.0000     0.0000 </r>
       <r>   -25.1727     0.0000     0.0000 </r>
       <r>   -25.0270     0.0000     0.0000 </r>
       <r>   -24.8813     0.0000     0.0000 </r>
       <r>   -24.7356     0.0000     0.0000 </r>
       <r>   -24.5899     0.0000     0.0000 </r>
       <r>   -24.4442     0.0000     0.0000 </r>
       <r>   -24.2985     0.0000     0.0000 </r>
       <r>   -24.1528     0.0000     0.0000 </r>
       <r>   -24.0071     0.0000     0.0000 </r>
       <r>   -23.8614     0.0000     0.0000 </r>
       <r>   -23.7157     0.0000     0.0000 </r>
       <r>   -23.5700     0.0000     0.0000 </r>
       <r>   -23.4243     0.0000     0.0000 </r>
       <r>   -23.2786     0.0000     0.0000 </r>
       <r>   -23.1329     0.0000     0.0000 </r>
       <r>   -22.9872     0.0000     0.0000 </r>
       <r>   -22.8415     0.0000     0.0000 </r>
       <r>   -22.6958     0.0000     0.0000 </r>
       <r>   -22.5501     0.0000     0.0000 </r>
       <r>   -22.4044     0.0000     0.0000 </r>
       <r>   -22.2587     0.0000     0.0000 </r>
       <r>   -22.1130     0.0000     0.0000 </r>
       <r>   -21.9673     0.0000     0.0000 </r>
       <r>   -21.8216     0.0000     0.0000 </r>
       <r>   -21.6759     0.0000     0.0000 </r>
       <r>   -21.5302     0.0000     0.0000 </r>
       <r>   -21.3845     0.0000     0.0000 </r>
       <r>   -21.2388     0.0000     0.0000 </r>
       <r>   -21.0931     0.0000     0.0000 </r>
       <r>   -20.9474     0.0000     0.0000 </r>
       <r>   -20.8017     0.0000     0.0000 </r>
       <r>   -20.6560     0.0000     0.0000 </r>
       <r>   -20.5103     0.0000     0.0000 </r>
       <r>   -20.3646     0.0000     0.0000 </r>
       <r>   -20.2189     0.0000     0.0000 </r>
       <r>   -20.0732     0.0000     0.0000 </r>
       <r>   -19.9275     0.0000     0.0000 </r>
       <r>   -19.7818     0.0000     0.0000 </r>
       <r>   -19.6361     0.0000     0.0000 </r>
       <r>   -19.4904     0.0000     0.0000 </r>
       <r>   -19.3447     0.0000     0.0000 </r>
       <r>   -19.1990     0.0000     0.0000 </r>
       <r>   -19.0533     0.0000     0.0000 </r>
       <r>   -18.9076     0.0000     0.0000 </r>
       <r>   -18.7619     0.0000     0.0000 </r>
       <r>   -18.6162     0.0000     0.0000 </r>
       <r>   -18.4705     0.0000     0.0000 </r>
       <r>   -18.3248     0.0000     0.0000 </r>
       <r>   -18.1791     0.0000     0.0000 </r>
       <r>   -18.0334     0.0000     0.0000 </r>
       <r>   -17.8877     0.0000     0.0000 </r>
       <r>   -17.7420     0.0000     0.0000 </r>
       <r>   -17.5963     0.0000     0.0000 </r>
       <r>   -17.4506     0.0000     0.0000 </r>
       <r>   -17.3049     0.0000     0.0000 </r>
       <r>   -17.1592     0.0000     0.0000 </r>
       <r>   -17.0135     0.0000     0.0000 </r>
       <r>   -16.8678     0.0000     0.0000 </r>
       <r>   -16.7221     0.0000     0.0000 </r>
       <r>   -16.5764     0.0000     0.0000 </r>
       <r>   -16.4307     0.0000     0.0000 </r>
       <r>   -16.2850     0.0000     0.0000 </r>
       <r>   -16.1393     0.0000     0.0000 </r>
       <r>   -15.9936     0.0000     0.0000 </r>
       <r>   -15.8479     0.0000     0.0000 </r>
       <r>   -15.7022     0.0000     0.0000 </r>
       <r>   -15.5565     0.0000     0.0000 </r>
       <r>   -15.4108     0.0000     0.0000 </r>
       <r>   -15.2651     0.0000     0.0000 </r>
       <r>   -15.1194     0.0000     0.0000 </r>
       <r>   -14.9737     0.0000     0.0000 </r>
       <r>   -14.8280     0.0000     0.0000 </r>
       <r>   -14.6823     0.0000     0.0000 </r>
       <r>   -14.5366     0.0000     0.0000 </r>
       <r>   -14.3909     0.0000     0.0000 </r>
       <r>   -14.2452     0.0000     0.0000 </r>
       <r>   -14.0995     0.0000     0.0000 </r>
       <r>   -13.9538     0.0000     0.0000 </r>
       <r>   -13.8081     0.0000     0.0000 </r>
       <r>   -13.6624     0.0000     0.0000 </r>
       <r>   -13.5167     0.0000     0.0000 </r>
       <r>   -13.3710     0.0000     0.0000 </r>
       <r>   -13.2253     0.0000     0.0000 </r>
       <r>   -13.0796     0.0000     0.0000 </r>
       <r>   -12.9339     0.0000     0.0000 </r>
       <r>   -12.7882     0.0000     0.0000 </r>
       <r>   -12.6425     0.0000     0.0000 </r>
       <r>   -12.4968     0.0000     0.0000 </r>
       <r>   -12.3511     0.0000     0.0000 </r>
       <r>   -12.2054     0.0000     0.0000 </r>
       <r>   -12.0597     0.0000     0.0000 </r>
       <r>   -11.9140     0.0000     0.0000 </r>
       <r>   -11.7683     0.0000     0.0000 </r>
       <r>   -11.6226     0.0000     0.0000 </r>
       <r>   -11.4769     0.0000     0.0000 </r>
       <r>   -11.3312     0.0000     0.0000 </r>
       <r>   -11.1855     0.0000     0.0000 </r>
       <r>   -11.0398     0.0000     0.0000 </r>
       <r>   -10.8941     0.0000     0.0000 </r>
       <r>   -10.7484     0.0000     0.0000 </r>
       <r>   -10.6027     0.0000     0.0000 </r>
       <r>   -10.4570     0.0000     0.0000 </r>
       <r>   -10.3113     0.0000     0.0000 </r>
       <r>   -10.1656     0.0000     0.0000 </r>
       <r>   -10.0199     0.0000     0.0000 </r>
       <r>    -9.8742     0.0000     0.0000 </r>
       <r>    -9.7285     0.0000     0.0000 </r>
       <r>    -9.5828     0.0000     0.0000 </r>
       <r>    -9.4371     0.0000     0.0000 </r>
       <r>    -9.2914     0.0000     0.0000 </r>
       <r>    -9.1457     0.0000     0.0000 </r>
       <r>    -9.0000     0.0000     0.0000 </r>
       <r>    -8.8543     0.0000     0.0000 </r>
       <r>    -8.7086     0.0000     0.0000 </r>
       <r>    -8.5629     0.0000     0.0000 </r>
       <r>    -8.4172     0.0000     0.0000 </r>
       <r>    -8.2715     0.0000     0.0000 </r>
       <r>    -8.1258     0.0000     0.0000 </r>
       <r>    -7.9801     0.0000     0.0000 </r>
       <r>    -7.8344     0.0000     0.0000 </r>
       <r>    -7.6887     0.0000     0.0000 </r>
       <r>    -7.5430     0.0000     0.0000 </r>
       <r>    -7.3973     0.0000     0.0000 </r>
       <r>    -7.2516     0.0000     0.0000 </r>
       <r>    -7.1059     0.0000     0.0000 </r>
       <r>    -6.9602     0.0000     0.0000 </r>
       <r>    -6.8145     0.0000     0.0000 </r>
       <r>    -6.6688     0.0000     0.0000 </r>
       <r>    -6.5231     0.0000     0.0000 </r>
       <r>    -6.3774     0.0000     0.0000 </r>
       <r>    -6.2317     0.0000     0.0000 </r>
       <r>    -6.0860     0.0000     0.0000 </r>
       <r>    -5.9403     0.0000     0.0000 </r>
       <r>    -5.7946     0.0000     0.0000 </r>
       <r>    -5.6489     0.0000     0.0000 </r>
       <r>    -5.5032     0.0000     0.0000 </r>
       <r>    -5.3575     0.0000     0.0000 </r>
       <r>    -5.2118     0.0000     0.0000 </r>
       <r>    -5.0661     0.0000     0.0000 </r>
       <r>    -4.9204     0.0000     0.0000 </r>
       <r>    -4.7747     0.0000     0.0000 </r>
       <r>    -4.6290     0.0000     0.0000 </r>
       <r>    -4.4833     0.0000     0.0000 </r>
       <r>    -4.3376     0.0000     0.0000 </r>
       <r>    -4.1919     0.0000     0.0000 </r>
       <r>    -4.0462     0.0000     0.0000 </r>
       <r>    -3.9005     0.0000     0.0000 </r>
       <r>    -3.7548     0.0000     0.0000 </r>
       <r>    -3.6091     0.0000     0.0000 </r>
       <r>    -3.4634     0.0000     0.0000 </r>
       <r>    -3.3177     0.0000     0.0000 </r>
       <r>    -3.1720     0.0000     0.0000 </r>
       <r>    -3.0263     0.0000     0.0000 </r>
       <r>    -2.8806     0.0000     0.0000 </r>
       <r>    -2.7349     0.0000     0.0000 </r>
       <r>    -2.5892     0.0000     0.0000 </r>
       <r>    -2.4435     0.0000     0.0000 </r>
       <r>    -2.2978     0.0000     0.0000 </r>
       <r>    -2.1521     0.0000     0.0000 </r>
       <r>    -2.0064     0.0000     0.0000 </r>
       <r>    -1.8607     0.0000     0.0000 </r>
       <r>    -1.7150     0.0000     0.0000 </r>
       <r>    -1.5693     0.0000     0.0000 </r>
       <r>    -1.4236     0.0000     0.0000 </r>
       <r>    -1.2779     0.0000     0.0000 </r>
       <r>    -1.1322     0.0000     0.0000 </r>
       <r>    -0.9865     0.0000     0.0000 </r>
       <r>    -0.8408     0.0000     0.0000 </r>
       <r>    -0.6951     0.0000     0.0000 </r>
       <r>    -0.5494     0.0000     0.0000 </r>
       <r>    -0.4037     0.0000     0.0000 </r>
       <r>    -0.2580     0.0000     0.0000 </r>
       <r>    -0.1123     0.0000     0.0000 </r>
       <r>     0.0334     0.0000     0.0000 </r>
       <r>     0.1791     0.0000     0.0000 </r>
       <r>     0.3248     0.0000     0.0000 </r>
       <r>     0.4705     0.0000     0.0000 </r>
       <r>     0.6162     0.0000     0.0000 </r>
       <r>     0.7619     0.0000     0.0000 </r>
       <r>     0.9076     0.0000     0.0000 </r>
       <r>     1.0533     0.0000     0.0000 </r>
       <r>     1.1990     0.0000     0.0000 </r>
       <r>     1.3447     0.0000     0.0000 </r>
       <r>     1.4904     0.0000     0.0000 </r>
       <r>     1.6361     0.0000     0.0000 </r>
       <r>     1.7818     0.0000     0.0000 </r>
       <r>     1.9275     0.0000     0.0000 </r>
       <r>     2.0732     0.0000     0.0000 </r>
       <r>     2.2189     0.0000     0.0000 </r>
       <r>     2.3646     0.0000     0.0000 </r>
       <r>     2.5103     0.0000     0.0000 </r>
       <r>     2.6560     0.0000     0.0000 </r>
       <r>     2.8017     0.0000     0.0000 </r>
       <r>     2.9474     0.0000     0.0000 </r>
       <r>     3.0931     0.0000     0.0000 </r>
       <r>     3.2388     0.0000     0.0000 </r>
       <r>     3.3845     0.0000     0.0000 </r>
       <r>     3.5302     0.0000     0.0000 </r>
       <r>     3.6759     0.0000     0.0000 </r>
       <r>     3.8216     0.0000     0.0000 </r>
       <r>     3.9673     0.0000     0.0000 </r>
       <r>     4.1130     0.0000     0.0000 </r>
       <r>     4.2587     0.0000     0.0000 </r>
       <r>     4.4044     0.0000     0.0000 </r>
       <r>     4.5501     0.0000     0.0000 </r>
       <r>     4.6958     0.0000     0.0000 </r>
       <r>     4.8415     0.0000     0.0000 </r>
       <r>     4.9872     0.0000     0.0000 </r>
       <r>     5.1329     0.0000     0.0000 </r>
       <r>     5.2786     0.0000     0.0000 </r>
       <r>     5.4243     0.0000     0.0000 </r>
       <r>     5.5700     0.0000     0.0000 </r>
       <r>     5.7157     0.0000     0.0000 </r>
       <r>     5.8614     0.0000     0.0000 </r>
       <r>     6.0071     0.0000     0.0000 </r>
       <r>     6.1528     0.0000     0.0000 </r>
       <r>     6.2985     0.0000     0.0000 </r>
       <r>     6.4442     0.0000     0.0000 </r>
       <r>     6.5899     0.0000     0.0000 </r>
       <r>     6.7356     0.0000     0.0000 </r>
       <r>     6.8813     0.0000     0.0000 </r>
       <r>     7.0270     0.0000     0.0000 </r>
       <r>     7.1727     0.0000     0.0000 </r>
       <r>     7.3184     0.0000     0.0000 </r>
       <r>     7.4641     0.0000     0.0000 </r>
       <r>     7.6098     0.0000     0.0000 </r>
       <r>     7.7555     0.0000     0.0000 </r>
       <r>     7.9012     0.0000     0.0000 </r>
       <r>     8.0469     0.0000     0.0000 </r>
       <r>     8.1926     0.0000     0.0000 </r>
       <r>     8.3383     0.0000     0.0000 </r>
       <r>     8.4840     0.0000     0.0000 </r>
       <r>     8.6297     0.0000     0.0000 </r>
       <r>     8.7754     0.0000     0.0000 </r>
       <r>     8.9211     0.0000     0.0000 </r>
       <r>     9.0668     0.0000     0.0000 </r>
       <r>     9.2125     0.0000     0.0000 </r>
       <r>     9.3582     0.0000     0.0000 </r>
       <r>     9.5039     0.0000     0.0000 </r>
       <r>     9.6496     0.0000     0.0000 </r>
       <r>     9.7953     0.0000     0.0000 </r>
       <r>     9.9410     0.0000     0.0000 </r>
       <r>    10.0867     0.0000     0.0000 </r>
       <r>    10.2324     0.0000     0.0000 </r>
       <r>    10.3781     0.0000     0.0000 </r>
       <r>    10.5238     0.0000     0.0000 </r>
       <r>    10.6694     0.0000     0.0000 </r>
       <r>    10.8151     0.0000     0.0000 </r>
       <r>    10.9608     0.0000     0.0000 </r>
       <r>    11.1065     0.0000     0.0000 </r>
       <r>    11.2522     0.0000     0.0000 </r>
       <r>    11.3979     0.0000     0.0000 </r>
       <r>    11.5436     0.0000     0.0000 </r>
       <r>    11.6893     0.0000     0.0000 </r>
       <r>    11.8350     0.0000     0.0000 </r>
       <r>    11.9807     0.0000     0.0000 </r>
       <r>    12.1264     0.0000     0.0000 </r>
       <r>    12.2721     0.0000     0.0000 </r>
       <r>    12.4178     0.0000     0.0000 </r>
       <r>    12.5635     0.0000     0.0000 </r>
       <r>    12.7092     0.0000     0.0000 </r>
       <r>    12.8549     0.0000     0.0000 </r>
       <r>    13.0006     0.0000     0.0000 </r>
       <r>    13.1463     0.0000     0.0000 </r>
       <r>    13.2920     0.0000     0.0000 </r>
       <r>    13.4377     0.0000     0.0000 </r>
       <r>    13.5834     0.0000     0.0000 </r>
       <r>    13.7291     0.0000     0.0000 </r>
       <r>    13.8748     0.0000     0.0000 </r>
       <r>    14.0205     0.0000     0.0000 </r>
       <r>    14.1662     0.0000     0.0000 </r>
       <r>    14.3119     0.0000     0.0000 </r>
       <r>    14.4576     0.0000     0.0000 </r>
       <r>    14.6033     0.0000     0.0000 </r>
       <r>    14.7490     0.0000     0.0000 </r>
       <r>    14.8947     0.0000     0.0000 </r>
       <r>    15.0404     0.0000     0.0000 </r>
       <r>    15.1861     0.0000     0.0000 </r>
       <r>    15.3318     0.0000     0.0000 </r>
       <r>    15.4775     0.0000     0.0000 </r>
       <r>    15.6232     0.0000     0.0000 </r>
       <r>    15.7689     0.0000     0.0000 </r>
       <r>    15.9146     0.0000     0.0000 </r>
       <r>    16.0603     0.0000     0.0000 </r>
       <r>    16.2060     0.0000     0.0000 </r>
       <r>    16.3517     0.0000     0.0000 </r>
       <r>    16.4974     0.0000     0.0000 </r>
       <r>    16.6431     0.0000     0.0000 </r>
       <r>    16.7888     0.0000     0.0000 </r>
       <r>    16.9345     0.0000     0.0000 </r>
       <r>    17.0802     0.0000     0.0000 </r>
       <r>    17.2259     0.0000     0.0000 </r>
       <r>    17.3716     0.0000     0.0000 </r>
       <r>    17.5173     0.0000     0.0000 </r>
       <r>    17.6630     0.0000     0.0000 </r>
       <r>    17.8087     0.0000     0.0000 </r>
       <r>    17.9544     0.0000     0.0000 </r>
      </set>
     </set>
    </array>
   </total>
  </dos>
 </calculation>
 <structure name="finalpos" >
  <crystal>
   <varray name="basis" >
    <v>       2.00000000       0.00000000       0.00000000 </v>
    <v>       0.00000000       3.00000000       0.00000000 </v>
    <v>       0.00000000       0.00000000       4.00000000 </v>
   </varray>
   <i name="volume">     24.00000000 </i>
   <varray name="rec_basis" >
    <v>       0.50000000       0.00000000       0.00000000 </v>
    <v>       0.00000000       0.33333333       0.00000000 </v>
    <v>       0.00000000       0.00000000       0.25000000 </v>
   </varray>
  </crystal>
  <varray name="positions" >
   <v>       0.50000002       0.50000002       0.56647934 </v>
   <v>       0.49999998       0.49999998       0.25589721 </v>
  </varray>
  <varray name="selective"  type="logical" >
   <v type="logical" >  T  T  T </v>
   <v type="logical" >  T  T  T </v>
  </varray>
  <nose>
   <v>      -3.00000000       0.00000000       0.00010000       0.00010000 </v>
  </nose>
 </structure>
</modeling>
