unknown system                          
           1
     2.000000    0.000000    0.000000
     0.000000    3.000000    0.000000
     0.000000    0.000000    4.000000
   N    O 
     1     1
Direct configuration=     1
   0.50000000  0.50000000  0.56044028
   0.50000000  0.50000000  0.26193626
Direct configuration=     2
   0.50000018  0.50000023  0.61745714
   0.49999982  0.49999977  0.20491940
Direct configuration=     3
   0.50000009  0.50000011  0.58735779
   0.49999991  0.49999989  0.23501875
Direct configuration=     4
   0.50000004  0.50000004  0.57134583
   0.49999996  0.49999996  0.25103071
Direct configuration=     5
   0.50000002  0.50000003  0.56737238
   0.49999998  0.49999997  0.25500416
Direct configuration=     6
   0.50000002  0.50000002  0.56642946
   0.49999998  0.49999998  0.25594708
Direct configuration=     7
   0.50000002  0.50000002  0.56647934
   0.49999998  0.49999998  0.25589721
