   2   2   0   0
  0.2580196E+02  0.2441046E-09  0.2441046E-09  0.1000000E-08  0.5000000E-15
   1.0000000000000000E-004
  CAR 
 unknown system                          
     13.93691900    -22.34943745  301     -0.88557983      1.00000000
    -22.349  0.0000E+00  0.0000E+00
    -22.228  0.0000E+00  0.0000E+00
    -22.108  0.0000E+00  0.0000E+00
    -21.987 -0.3744E-31 -0.4528E-32
    -21.866 -0.4798E-27 -0.5803E-28
    -21.745 -0.2940E-23 -0.3556E-24
    -21.624 -0.8601E-20 -0.1041E-20
    -21.503 -0.1166E-16 -0.1411E-17
    -21.382 -0.7667E-14 -0.9288E-15
    -21.261 -0.2387E-11 -0.2896E-12
    -21.140 -0.3487E-09 -0.4247E-10
    -21.019 -0.2361E-07 -0.2899E-08
    -20.898 -0.7233E-06 -0.9038E-07
    -20.777 -0.9473E-05 -0.1236E-05
    -20.656 -0.4442E-04 -0.6609E-05
    -20.535 -0.2043E-05 -0.6856E-05
    -20.414  0.3600E-03  0.3669E-04
    -20.293  0.7544E-03  0.1279E-03
    -20.172  0.2186E-02  0.3924E-03
    -20.051  0.5397E-02  0.1045E-02
    -19.930  0.4876E-02  0.1635E-02
    -19.809  0.9435E-03  0.1749E-02
    -19.688 -0.3778E-03  0.1703E-02
    -19.567  0.2200E-02  0.1969E-02
    -19.447  0.5525E-02  0.2638E-02
    -19.326  0.5270E-02  0.3275E-02
    -19.205  0.5495E-02  0.3940E-02
    -19.084  0.5092E-02  0.4556E-02
    -18.963  0.1555E-02  0.4744E-02
    -18.842 -0.2697E-03  0.4711E-02
    -18.721 -0.4093E-03  0.4662E-02
    -18.600 -0.6070E-03  0.4588E-02
    -18.479  0.1945E-02  0.4824E-02
    -18.358  0.9448E-02  0.5966E-02
    -18.237  0.1103E-01  0.7301E-02
    -18.116  0.3519E-02  0.7726E-02
    -17.995 -0.5645E-03  0.7658E-02
    -17.874  0.1750E-02  0.7870E-02
    -17.753  0.5622E-02  0.8550E-02
    -17.632  0.4473E-02  0.9091E-02
    -17.511  0.7851E-03  0.9186E-02
    -17.390 -0.3402E-03  0.9144E-02
    -17.269 -0.3428E-03  0.9103E-02
    -17.148 -0.8600E-04  0.9093E-02
    -17.027  0.2331E-02  0.9375E-02
    -16.906  0.5424E-02  0.1003E-01
    -16.786  0.7280E-02  0.1091E-01
    -16.665  0.1128E-01  0.1228E-01
    -16.544  0.9506E-02  0.1342E-01
    -16.423  0.2149E-02  0.1368E-01
    -16.302 -0.6464E-03  0.1361E-01
    -16.181 -0.5398E-03  0.1354E-01
    -16.060  0.2533E-03  0.1357E-01
    -15.939  0.3557E-02  0.1400E-01
    -15.818  0.5949E-02  0.1472E-01
    -15.697  0.3033E-02  0.1509E-01
    -15.576  0.2694E-04  0.1509E-01
    -15.455 -0.6397E-03  0.1501E-01
    -15.334 -0.5555E-03  0.1495E-01
    -15.213  0.3562E-02  0.1538E-01
    -15.092  0.1210E-01  0.1684E-01
    -14.971  0.1401E-01  0.1854E-01
    -14.850  0.7389E-02  0.1943E-01
    -14.729  0.1301E-02  0.1959E-01
    -14.608 -0.4319E-03  0.1954E-01
    -14.487 -0.2112E-03  0.1951E-01
    -14.366 -0.5714E-04  0.1950E-01
    -14.245 -0.1893E-03  0.1948E-01
    -14.125 -0.1892E-03  0.1946E-01
    -14.004  0.1941E-02  0.1969E-01
    -13.883  0.5540E-02  0.2036E-01
    -13.762  0.4452E-02  0.2090E-01
    -13.641  0.9983E-03  0.2102E-01
    -13.520  0.1738E-02  0.2123E-01
    -13.399  0.4203E-02  0.2174E-01
    -13.278  0.5771E-02  0.2244E-01
    -13.157  0.5981E-02  0.2316E-01
    -13.036  0.2498E-02  0.2346E-01
    -12.915 -0.5904E-03  0.2339E-01
    -12.794  0.1439E-02  0.2357E-01
    -12.673  0.9060E-02  0.2466E-01
    -12.552  0.1127E-01  0.2602E-01
    -12.431  0.4066E-02  0.2652E-01
    -12.310 -0.3603E-03  0.2647E-01
    -12.189 -0.5436E-03  0.2641E-01
    -12.068 -0.6333E-03  0.2633E-01
    -11.947  0.7960E-03  0.2643E-01
    -11.826  0.7603E-02  0.2735E-01
    -11.705  0.1173E-01  0.2877E-01
    -11.584  0.5606E-02  0.2944E-01
    -11.464  0.1054E-02  0.2957E-01
    -11.343  0.1507E-02  0.2975E-01
    -11.222  0.1060E-02  0.2988E-01
    -11.101  0.6914E-04  0.2989E-01
    -10.980 -0.1674E-03  0.2987E-01
    -10.859 -0.4357E-03  0.2982E-01
    -10.738 -0.1484E-03  0.2980E-01
    -10.617  0.4591E-02  0.3035E-01
    -10.496  0.1118E-01  0.3171E-01
    -10.375  0.8301E-02  0.3271E-01
    -10.254  0.9779E-03  0.3283E-01
    -10.133  0.1762E-02  0.3304E-01
    -10.012  0.9665E-02  0.3421E-01
     -9.891  0.1073E-01  0.3551E-01
     -9.770  0.3273E-02  0.3591E-01
     -9.649 -0.4727E-03  0.3585E-01
     -9.528 -0.3728E-03  0.3580E-01
     -9.407 -0.3943E-03  0.3576E-01
     -9.286 -0.8661E-03  0.3565E-01
     -9.165  0.2738E-02  0.3598E-01
     -9.044  0.1382E-01  0.3765E-01
     -8.923  0.1668E-01  0.3967E-01
     -8.803  0.5899E-02  0.4039E-01
     -8.682 -0.5667E-03  0.4032E-01
     -8.561 -0.4163E-03  0.4027E-01
     -8.440  0.3203E-03  0.4030E-01
     -8.319  0.1603E-02  0.4050E-01
     -8.198  0.6856E-02  0.4133E-01
     -8.077  0.1133E-01  0.4270E-01
     -7.956  0.1167E-01  0.4411E-01
     -7.835  0.1188E-01  0.4555E-01
     -7.714  0.7603E-02  0.4647E-01
     -7.593  0.5618E-02  0.4715E-01
     -7.472  0.8292E-02  0.4815E-01
     -7.351  0.7938E-02  0.4911E-01
     -7.230  0.7908E-02  0.5007E-01
     -7.109  0.1375E-01  0.5173E-01
     -6.988  0.1787E-01  0.5389E-01
     -6.867  0.1056E-01  0.5517E-01
     -6.746  0.4352E-02  0.5569E-01
     -6.625  0.9080E-02  0.5679E-01
     -6.504  0.9687E-02  0.5796E-01
     -6.383  0.2521E-02  0.5827E-01
     -6.262  0.6226E-03  0.5834E-01
     -6.142  0.7673E-02  0.5927E-01
     -6.021  0.1145E-01  0.6066E-01
     -5.900  0.4516E-02  0.6120E-01
     -5.779  0.1241E-02  0.6135E-01
     -5.658  0.8750E-02  0.6241E-01
     -5.537  0.1463E-01  0.6418E-01
     -5.416  0.1003E-01  0.6539E-01
     -5.295  0.2576E-02  0.6571E-01
     -5.174  0.6427E-03  0.6578E-01
     -5.053  0.4296E-02  0.6630E-01
     -4.932  0.5395E-02  0.6696E-01
     -4.811  0.1410E-02  0.6713E-01
     -4.690  0.1569E-03  0.6715E-01
     -4.569  0.5955E-02  0.6787E-01
     -4.448  0.1275E-01  0.6941E-01
     -4.327  0.1461E-01  0.7118E-01
     -4.206  0.1199E-01  0.7263E-01
     -4.085  0.4566E-02  0.7318E-01
     -3.964  0.7310E-03  0.7327E-01
     -3.843  0.1589E-02  0.7346E-01
     -3.722  0.3866E-02  0.7393E-01
     -3.601  0.5947E-02  0.7465E-01
     -3.481  0.3506E-02  0.7507E-01
     -3.360  0.1829E-03  0.7509E-01
     -3.239 -0.5824E-03  0.7502E-01
     -3.118  0.5573E-03  0.7509E-01
     -2.997  0.3898E-02  0.7556E-01
     -2.876  0.5648E-02  0.7624E-01
     -2.755  0.7469E-02  0.7715E-01
     -2.634  0.1161E-01  0.7855E-01
     -2.513  0.7740E-02  0.7949E-01
     -2.392  0.9326E-03  0.7960E-01
     -2.271 -0.5840E-03  0.7953E-01
     -2.150 -0.1693E-03  0.7951E-01
     -2.029 -0.1559E-04  0.7951E-01
     -1.908 -0.6001E-06  0.7951E-01
     -1.787 -0.1038E-07  0.7951E-01
     -1.666 -0.2104E-08  0.7951E-01
     -1.545 -0.1285E-06  0.7951E-01
     -1.424 -0.3682E-05  0.7951E-01
     -1.303 -0.4466E-04  0.7950E-01
     -1.182 -0.1831E-03  0.7948E-01
     -1.061  0.1691E-03  0.7950E-01
     -0.940  0.2325E-02  0.7978E-01
     -0.820  0.3970E-02  0.8026E-01
     -0.699  0.2072E-02  0.8051E-01
     -0.578  0.7224E-04  0.8052E-01
     -0.457 -0.1713E-03  0.8050E-01
     -0.336 -0.3692E-04  0.8049E-01
     -0.215 -0.2798E-05  0.8049E-01
     -0.094 -0.9170E-07  0.8049E-01
      0.027 -0.8814E-07  0.8049E-01
      0.148 -0.3124E-05  0.8049E-01
      0.269 -0.5090E-04  0.8049E-01
      0.390 -0.3448E-03  0.8045E-01
      0.511 -0.5758E-03  0.8038E-01
      0.632  0.2876E-02  0.8072E-01
      0.753  0.1229E-01  0.8221E-01
      0.874  0.1590E-01  0.8413E-01
      0.995  0.7053E-02  0.8499E-01
      1.116  0.4903E-05  0.8499E-01
      1.237  0.1662E-02  0.8519E-01
      1.358  0.5621E-02  0.8587E-01
      1.479  0.4293E-02  0.8639E-01
      1.600  0.6743E-03  0.8647E-01
      1.721 -0.2965E-03  0.8643E-01
      1.841 -0.1070E-03  0.8642E-01
      1.962 -0.1067E-03  0.8641E-01
      2.083 -0.4556E-03  0.8635E-01
      2.204 -0.3138E-06  0.8635E-01
      2.325  0.5291E-02  0.8699E-01
      2.446  0.1201E-01  0.8844E-01
      2.567  0.9661E-02  0.8961E-01
      2.688  0.5678E-02  0.9030E-01
      2.809  0.4846E-02  0.9089E-01
      2.930  0.3788E-02  0.9134E-01
      3.051  0.5348E-02  0.9199E-01
      3.172  0.4249E-02  0.9251E-01
      3.293  0.7936E-03  0.9260E-01
      3.414  0.2074E-02  0.9285E-01
      3.535  0.5483E-02  0.9352E-01
      3.656  0.3689E-02  0.9396E-01
      3.777  0.1945E-02  0.9420E-01
      3.898  0.7565E-02  0.9511E-01
      4.019  0.1145E-01  0.9650E-01
      4.140  0.6231E-02  0.9725E-01
      4.261  0.2931E-02  0.9761E-01
      4.382  0.5308E-02  0.9825E-01
      4.502  0.4071E-02  0.9874E-01
      4.623  0.5192E-03  0.9880E-01
      4.744 -0.8721E-03  0.9870E-01
      4.865 -0.9130E-03  0.9859E-01
      4.986  0.4973E-02  0.9919E-01
      5.107  0.1865E-01  0.1014E+00
      5.228  0.2417E-01  0.1044E+00
      5.349  0.1515E-01  0.1062E+00
      5.470  0.6989E-02  0.1070E+00
      5.591  0.5482E-02  0.1077E+00
      5.712  0.7046E-02  0.1086E+00
      5.833  0.1022E-01  0.1098E+00
      5.954  0.7685E-02  0.1107E+00
      6.075  0.1674E-02  0.1109E+00
      6.196 -0.9553E-03  0.1108E+00
      6.317 -0.2862E-03  0.1108E+00
      6.438  0.5465E-02  0.1114E+00
      6.559  0.1434E-01  0.1132E+00
      6.680  0.1921E-01  0.1155E+00
      6.801  0.1875E-01  0.1178E+00
      6.922  0.1518E-01  0.1196E+00
      7.043  0.1334E-01  0.1212E+00
      7.163  0.9100E-02  0.1223E+00
      7.284  0.5890E-02  0.1230E+00
      7.405  0.1643E-01  0.1250E+00
      7.526  0.2251E-01  0.1277E+00
      7.647  0.1377E-01  0.1294E+00
      7.768  0.1355E-01  0.1310E+00
      7.889  0.2314E-01  0.1338E+00
      8.010  0.2260E-01  0.1366E+00
      8.131  0.9951E-02  0.1378E+00
      8.252  0.6289E-03  0.1379E+00
      8.373  0.1840E-02  0.1381E+00
      8.494  0.7357E-02  0.1390E+00
      8.615  0.8610E-02  0.1400E+00
      8.736  0.5675E-02  0.1407E+00
      8.857  0.7825E-02  0.1416E+00
      8.978  0.1154E-01  0.1430E+00
      9.099  0.5964E-02  0.1438E+00
      9.220  0.1202E-03  0.1438E+00
      9.341 -0.8381E-03  0.1437E+00
      9.462 -0.7298E-03  0.1436E+00
      9.583  0.2843E-02  0.1439E+00
      9.704  0.1107E-01  0.1453E+00
      9.824  0.1188E-01  0.1467E+00
      9.945  0.9267E-02  0.1478E+00
     10.066  0.1726E-01  0.1499E+00
     10.187  0.1910E-01  0.1522E+00
     10.308  0.8674E-02  0.1533E+00
     10.429  0.9164E-02  0.1544E+00
     10.550  0.1912E-01  0.1567E+00
     10.671  0.1640E-01  0.1587E+00
     10.792  0.4161E-02  0.1592E+00
     10.913 -0.8429E-03  0.1591E+00
     11.034 -0.4816E-03  0.1590E+00
     11.155 -0.6427E-04  0.1590E+00
     11.276 -0.3576E-05  0.1590E+00
     11.397 -0.3650E-05  0.1590E+00
     11.518 -0.4370E-04  0.1590E+00
     11.639 -0.1818E-03  0.1590E+00
     11.760  0.1568E-03  0.1590E+00
     11.881  0.2295E-02  0.1593E+00
     12.002  0.3972E-02  0.1598E+00
     12.123  0.2101E-02  0.1600E+00
     12.244  0.8266E-04  0.1600E+00
     12.365 -0.1728E-03  0.1600E+00
     12.485 -0.3777E-04  0.1600E+00
     12.606 -0.2891E-05  0.1600E+00
     12.727 -0.9440E-07  0.1600E+00
     12.848 -0.1394E-08  0.1600E+00
     12.969 -0.9541E-11  0.1600E+00
     13.090 -0.3065E-13  0.1600E+00
     13.211 -0.4533E-16  0.1600E+00
     13.332  0.0000E+00  0.1600E+00
     13.453  0.0000E+00  0.1600E+00
     13.574  0.0000E+00  0.1600E+00
     13.695  0.0000E+00  0.1600E+00
     13.816  0.0000E+00  0.1600E+00
     13.937  0.0000E+00  0.1600E+00
