    2    2  100    1
  0.2580196E+02  0.2441046E-09  0.2441046E-09  0.1000000E-08  0.5000000E-15
   1.0000000000000000E-004
  CAR 
 unknown system                          
      8     12      8

  0.1262379E-14  0.1262379E-14  0.1262379E-14  0.1234568E-01
      1        -20.349437   1.000000
      2         -8.456819   1.000000
      3         -3.917134   1.000000
      4         -3.917078   1.000000
      5          2.316847  -0.000000
      6          3.958108   0.000000
      7          5.355727   0.000000
      8          7.384024   0.000000

  0.1111111E+00  0.1262879E-14  0.1262379E-14  0.7407407E-01
      1        -20.059425   1.000000
      2         -8.110895   1.000000
      3         -5.033257   1.000000
      4         -4.488103   1.000000
      5          2.711596  -0.000000
      6          4.348342   0.000000
      7          5.743534   0.000000
      8          7.471834   0.000000

  0.2222222E+00  0.1276756E-14  0.1262379E-14  0.7407407E-01
      1        -19.195281   1.000000
      2         -7.578813   1.000000
      3         -7.091553   1.000000
      4         -5.639108   1.000000
      5          3.894788   0.000000
      6          5.499895   0.000000
      7          6.864722   0.000000
      8          7.061447   0.000000

  0.3333333E+00  0.1249001E-14  0.1262379E-14  0.7407407E-01
      1        -17.777977   1.000000
      2        -10.499688   1.000000
      3         -6.655691   1.000000
      4         -5.479458   1.000000
      5          3.994036   0.000000
      6          5.852178   0.000000
      7          6.786488   0.000000
      8          7.474367   0.000000

  0.4444444E+00  0.1304512E-14  0.1262379E-14  0.7407407E-01
      1        -15.886038   1.000000
      2        -13.229270   1.000000
      3         -7.217138   1.000000
      4         -3.653165   1.000000
      5          1.327338  -0.000000
      6          6.485328   0.000000
      7          8.600156   0.000000
      8         10.100787   0.000000

  0.1111111E+00  0.1111111E+00  0.1262379E-14  0.7407407E-01
      1        -19.482388   1.000000
      2         -7.427602   1.000000
      3         -6.589808   1.000000
      4         -5.628019   1.000000
      5          3.501282   0.000000
      6          5.124581   0.000000
      7          6.522198   0.000000
      8          7.826580   0.000000

  0.2222222E+00  0.1111111E+00  0.1262379E-14  0.1481481E+00
      1        -18.341419   1.000000
      2         -9.033525   1.000000
      3         -7.006458   1.000000
      4         -6.102087   1.000000
      5          5.076453   0.000000
      6          5.232039   0.000000
      7          6.673858   0.000000
      8          7.987201   0.000000

  0.3333333E+00  0.1111111E+00  0.1262379E-14  0.1481481E+00
      1        -16.674997   1.000000
      2        -11.781047   1.000000
      3         -7.884279   1.000000
      4         -4.290274   1.000000
      5          2.417031  -0.000000
      6          7.404572   0.000000
      7          7.855961   0.000000
      8          8.909995   0.000000

  0.4444444E+00  0.1111111E+00  0.1262379E-14  0.7407407E-01
      1        -14.953714   1.000000
      2        -13.901976   1.000000
      3         -8.183181   1.000000
      4         -2.968322   1.000000
      5          0.713572  -0.000000
      6          7.679692   0.000000
      7         10.409645   0.000000
      8         10.573211   0.000000

  0.2222222E+00  0.2222222E+00  0.1262379E-14  0.7407407E-01
      1        -16.948480   1.000000
      2        -10.550638   1.000000
      3         -9.006273   1.000000
      4         -4.533349   1.000000
      5          3.032353  -0.000000
      6          7.033909   0.000000
      7          8.445021   0.000000
      8          9.984090   0.000000

  0.3333333E+00  0.2222222E+00  0.1262379E-14  0.1481481E+00
      1        -15.111024   1.000000
      2        -12.650837   1.000000
      3        -10.003103   1.000000
      4         -2.674337   1.000000
      5          0.815740  -0.000000
      6          9.702032   0.000000
      7         10.106111   0.000000
      8         10.543140   0.000000

  0.3333333E+00  0.3333333E+00  0.1262379E-14  0.2469136E-01
      1        -13.464409   1.000000
      2        -13.464378   1.000000
      3        -11.398230   1.000000
      4         -0.885622   0.500179
      5         -0.885538   0.499821
      6          9.753655   0.000000
      7         11.936892   0.000000
      8         11.936919   0.000000
