       N       E                     dE             d eps       ncg     rms          rms(c)
DAV:   1     0.358381801721E+02    0.35838E+02   -0.30093E+03   192   0.652E+02
DAV:   2    -0.175088571757E+02   -0.53347E+02   -0.48725E+02   256   0.265E+02
DAV:   3    -0.193438775229E+02   -0.18350E+01   -0.18335E+01   248   0.402E+01
DAV:   4    -0.193745002633E+02   -0.30623E-01   -0.30623E-01   344   0.619E+00
DAV:   5    -0.193745097183E+02   -0.94551E-05   -0.94551E-05   256   0.103E-01    0.179E+01
DAV:   6    -0.184258266391E+02    0.94868E+00   -0.90408E-01   328   0.119E+01    0.127E+01
DAV:   7    -0.181078867235E+02    0.31794E+00   -0.23361E+00   344   0.174E+01    0.163E+00
DAV:   8    -0.180410641140E+02    0.66823E-01   -0.25386E-01   240   0.644E+00    0.267E-01
DAV:   9    -0.180392231643E+02    0.18409E-02   -0.37756E-03   264   0.617E-01    0.116E-01
DAV:  10    -0.180377487550E+02    0.14744E-02   -0.57737E-04   264   0.160E-01    0.690E-02
DAV:  11    -0.180348675861E+02    0.28812E-02   -0.41944E-03   200   0.348E-01    0.447E-02
DAV:  12    -0.180371955724E+02   -0.23280E-02   -0.35212E-04   232   0.128E-01    0.264E-02
DAV:  13    -0.180375407320E+02   -0.34516E-03   -0.68470E-05   208   0.745E-02    0.187E-02
DAV:  14    -0.180378235959E+02   -0.28286E-03   -0.46442E-05   200   0.283E-02    0.354E-03
DAV:  15    -0.180378425032E+02   -0.18907E-04   -0.97258E-07   264   0.632E-03    0.143E-03
DAV:  16    -0.180378462100E+02   -0.37069E-05   -0.12805E-07   232   0.181E-03
   1 F= -.18037846E+02 E0= -.18036918E+02  d E =-.180378E+02
       N       E                     dE             d eps       ncg     rms          rms(c)
DAV:   1    -0.183241528516E+02   -0.28631E+00   -0.42179E+01   240   0.777E+01    0.352E+00
DAV:   2    -0.183186595532E+02    0.54933E-02   -0.73015E-01   256   0.941E+00    0.259E+00
DAV:   3    -0.182974959023E+02    0.21164E-01   -0.34023E-02   352   0.182E+00    0.169E+00
DAV:   4    -0.182875531862E+02    0.99427E-02   -0.19953E-02   264   0.117E+00    0.133E-01
DAV:   5    -0.182873862374E+02    0.16695E-03   -0.18461E-03   272   0.443E-01    0.111E-01
DAV:   6    -0.182873595902E+02    0.26647E-04   -0.26349E-04   248   0.129E-01    0.445E-02
DAV:   7    -0.182873843881E+02   -0.24798E-04   -0.23257E-04   216   0.113E-01    0.267E-02
DAV:   8    -0.182874147774E+02   -0.30389E-04   -0.15932E-04   208   0.866E-02    0.177E-02
DAV:   9    -0.182874136998E+02    0.10776E-05   -0.46301E-06   304   0.221E-02
   2 F= -.18287414E+02 E0= -.18286485E+02  d E =-.249567E+00
       N       E                     dE             d eps       ncg     rms          rms(c)
DAV:   1    -0.183058233632E+02   -0.18409E-01   -0.18872E+00   192   0.137E+01    0.694E-01
DAV:   2    -0.183059129263E+02   -0.89563E-04   -0.35558E-02   296   0.245E+00    0.575E-01
DAV:   3    -0.183048505879E+02    0.10623E-02   -0.11383E-03   256   0.320E-01    0.358E-01
DAV:   4    -0.183042882334E+02    0.56235E-03   -0.10881E-03   288   0.259E-01    0.213E-02
DAV:   5    -0.183042805079E+02    0.77255E-05   -0.55714E-05   200   0.728E-02
   3 F= -.18304281E+02 E0= -.18303352E+02  d E =-.266434E+00
       N       E                     dE             d eps       ncg     rms          rms(c)
DAV:   1    -0.183195950815E+02   -0.15307E-01   -0.30497E+01   208   0.613E+01    0.405E+00
DAV:   2    -0.183250130034E+02   -0.54179E-02   -0.52216E-01   288   0.882E+00    0.270E+00
DAV:   3    -0.183112104766E+02    0.13803E-01   -0.49742E-02   312   0.214E+00    0.367E-01
DAV:   4    -0.183110264692E+02    0.18401E-03   -0.36012E-03   288   0.609E-01    0.127E-01
DAV:   5    -0.183109059085E+02    0.12056E-03   -0.32169E-04   264   0.152E-01    0.822E-02
DAV:   6    -0.183108973946E+02    0.85140E-05   -0.21042E-04   232   0.117E-01    0.197E-02
DAV:   7    -0.183109173172E+02   -0.19923E-04   -0.17075E-05   248   0.443E-02    0.942E-03
DAV:   8    -0.183109338257E+02   -0.16508E-04   -0.16733E-06   248   0.979E-03    0.797E-03
DAV:   9    -0.183109474422E+02   -0.13617E-04   -0.42769E-07   216   0.496E-03    0.295E-03
DAV:  10    -0.183109716284E+02   -0.24186E-04   -0.19881E-06   192   0.692E-03    0.358E-03
DAV:  11    -0.183109752143E+02   -0.35859E-05   -0.11927E-07   248   0.246E-03
   4 F= -.18310975E+02 E0= -.18310047E+02  d E =-.669471E-02
       N       E                     dE             d eps       ncg     rms          rms(c)
DAV:   1    -0.183932356672E+02   -0.82264E-01   -0.74793E+00   208   0.349E+01    0.189E+00
DAV:   2    -0.183971649131E+02   -0.39292E-02   -0.12758E-01   248   0.423E+00    0.137E+00
DAV:   3    -0.183942255800E+02    0.29393E-02   -0.68801E-03   312   0.955E-01    0.582E-01
DAV:   4    -0.183938410590E+02    0.38452E-03   -0.11849E-03   264   0.381E-01    0.552E-02
DAV:   5    -0.183938167428E+02    0.24316E-04   -0.78050E-05   280   0.914E-02    0.336E-02
DAV:   6    -0.183938065586E+02    0.10184E-04   -0.23544E-05   280   0.379E-02    0.155E-02
DAV:   7    -0.183938076091E+02   -0.10504E-05   -0.41777E-06   248   0.182E-02
   5 F= -.18393808E+02 E0= -.18392879E+02  d E =-.895271E-01
       N       E                     dE             d eps       ncg     rms          rms(c)
DAV:   1    -0.183938199173E+02   -0.13359E-04   -0.62107E-04   232   0.297E-01    0.173E-02
DAV:   2    -0.183938219156E+02   -0.19983E-05   -0.94985E-06   280   0.339E-02
   6 F= -.18393822E+02 E0= -.18392893E+02  d E =-.895414E-01
       N       E                     dE             d eps       ncg     rms          rms(c)
DAV:   1    -0.183938238649E+02   -0.39476E-05   -0.59913E-05   248   0.939E-02    0.961E-03
DAV:   2    -0.183938249645E+02   -0.10995E-05   -0.80350E-07   280   0.994E-03
   7 F= -.18393825E+02 E0= -.18392896E+02  d E =-.895445E-01
       N       E                     dE             d eps       ncg     rms          rms(c)
DAV:   1    -0.183938272136E+02   -0.33487E-05   -0.73084E-06   256   0.315E-02    0.207E-03
DAV:   2    -0.183938278685E+02   -0.65487E-06   -0.15576E-07   288   0.418E-03
   8 F= -.18393828E+02 E0= -.18392899E+02  d E =-.895474E-01
       N       E                     dE             d eps       ncg     rms          rms(c)
DAV:   1    -0.183938286163E+02   -0.14027E-05   -0.10324E-06   264   0.121E-02    0.135E-03
DAV:   2    -0.183938290095E+02   -0.39318E-06   -0.18505E-08   272   0.135E-03
   9 F= -.18393829E+02 E0= -.18392900E+02  d E =-.895485E-01
       N       E                     dE             d eps       ncg     rms          rms(c)
DAV:   1    -0.183942298237E+02   -0.40121E-03   -0.35794E-02   192   0.179E+00    0.998E-02
DAV:   2    -0.183940787002E+02    0.15112E-03   -0.82992E-04   272   0.382E-01    0.753E-02
DAV:   3    -0.183939967116E+02    0.81989E-04   -0.80803E-05   288   0.827E-02    0.523E-02
DAV:   4    -0.183939597144E+02    0.36997E-04   -0.64973E-05   296   0.653E-02    0.116E-02
DAV:   5    -0.183939624858E+02   -0.27714E-05   -0.23054E-06   208   0.138E-02
  10 F= -.18393962E+02 E0= -.18393034E+02  d E =-.133476E-03
       N       E                     dE             d eps       ncg     rms          rms(c)
DAV:   1    -0.183939829701E+02   -0.23256E-04   -0.10967E-03   192   0.314E-01    0.178E-02
DAV:   2    -0.183939839041E+02   -0.93407E-06   -0.26687E-05   256   0.685E-02
  11 F= -.18393984E+02 E0= -.18393055E+02  d E =-.154895E-03
