 vasp.6.4.3 19Mar24 (build Jun 11 2024 09:57:22) complex                         
 executed on             LinuxGNU date 2024.07.24  22:47:33
 running    4 mpi-ranks, with    1 threads/rank, on    1 nodes
 distrk:  each k-point on    4 cores,    1 groups
 distr:  one band on NCORE=   1 cores,    4 groups


--------------------------------------------------------------------------------------------------------


 INCAR:
   ENMAX = 400
   LWAVE = F
   LCHARG = F
   LREAL = Auto
   IBRION = 2
   NSW = 100
   ISIF = 3
   EDIFF = 1e-5
   EDIFFG = -0.02

 POTCAR:    PAW_PBE C_s 06Sep2000                 
 POTCAR:    PAW_PBE C_s 06Sep2000                 
   SHA256 =  9a3c01a40653262e7b717cd20cb47bbe50ae4c537fe117e874a5caa4e6ed1e45 C_s/POTCAR            
   COPYR  = (c) Copyright 06Sep2000 Georg Kresse                                                    
   COPYR  = This file is part of the software VASP. Any use, copying, and all other rights are regul
   COPYR  = If you do not have a valid VASP license, you may not use, copy or distribute this file. 
   VRHFIN =C: s2p2                                                                                  
   LEXCH  = PE                                                                                      
   EATOM  =   147.1560 eV,   10.8157 Ry                                                             
                                                                                                    
   TITEL  = PAW_PBE C_s 06Sep2000                                                                   
   LULTRA =        F    use ultrasoft PP ?                                                          
   IUNSCR =        0    unscreen: 0-lin 1-nonlin 2-no                                               
   RPACOR =    0.000    partial core radius                                                         
   POMASS =   12.011; ZVAL   =    4.000    mass and valenz                                          
   RCORE  =    1.850    outmost cutoff radius                                                       
   RWIGS  =    1.890; RWIGS  =    1.000    wigner-seitz radius (au A)                               
   ENMAX  =  273.911; ENMIN  =  205.433 eV                                                          
   RCLOC  =    0.804    cutoff for local pot                                                        
   LCOR   =        T    correct aug charges                                                         
   LPAW   =        T    paw PP                                                                      
   EAUG   =  439.243                                                                                
   DEXC   =    0.000                                                                                
   RMAX   =    1.897    core radius for proj-oper                                                   
   RAUG   =    1.300    factor for augmentation sphere                                              
   RDEP   =    1.940    radius for radial grids                                                     
   RDEPT  =    1.573    core radius for aug-charge                                                  
                                                                                                    
   Atomic configuration                                                                             
    4 entries                                                                                       
     n  l   j            E        occ.                                                              
     1  0  0.50      -273.3789   2.0000                                                             
     2  0  0.50       -13.7508   2.0000                                                             
     2  1  0.50        -5.2854   2.0000                                                             
     3  2  1.50        -1.3606   0.0000                                                             
   Description                                                                                      
     l       E           TYP  RCUT    TYP  RCUT                                                     
     0    -13.7508457     23  1.500                                                                 
     0    -11.0934578     23  1.500                                                                 
     1     -5.2854381     23  1.850                                                                 
     1     -1.3099858     23  1.850                                                                 
  local pseudopotential read in
  atomic valenz-charges read in
  non local Contribution for L=           0  read in
    real space projection operators read in
  non local Contribution for L=           0  read in
    real space projection operators read in
  non local Contribution for L=           1  read in
    real space projection operators read in
  non local Contribution for L=           1  read in
    real space projection operators read in
    PAW grid and wavefunctions read in

   number of l-projection  operators is LMAX  =           4
   number of lm-projection operators is LMMAX =           8

 -----------------------------------------------------------------------------
|                                                                             |
|               ----> ADVICE to this user running VASP <----                  |
|                                                                             |
|     You have a (more or less) 'small supercell' and for smaller cells       |
|     it is recommended to use the reciprocal-space projection scheme!        |
|     The real-space optimization is not efficient for small cells and it     |
|     is also less accurate ...                                               |
|     Therefore, set LREAL=.FALSE. in the INCAR file.                         |
|                                                                             |
 -----------------------------------------------------------------------------

 Optimization of the real space projectors (new method)

 maximal supplied QI-value         = 20.41
 optimisation between [QCUT,QGAM] = [ 10.20, 20.41] = [ 29.16,116.64] Ry 
 Optimized for a Real-space Cutoff    1.26 Angstroem

   l    n(q)    QCUT    max X(q) W(low)/X(q) W(high)/X(q)  e(spline) 
   0      8    10.205   100.645    0.39E-03    0.15E-03    0.14E-06
   0      8    10.205    86.773    0.38E-03    0.14E-03    0.14E-06
   1      7    10.205   106.563    0.17E-03    0.72E-03    0.19E-06
   1      7    10.205    86.445    0.18E-03    0.73E-03    0.19E-06
  PAW_PBE C_s 06Sep2000                 :
 energy of atom  1       EATOM= -147.1560
 kinetic energy error for atom=    0.0046 (will be added to EATOM!!)


 POSCAR: graphene
  positions in direct lattice
  velocities in cartesian coordinates


 exchange-correlation table for PE
   RHO(1)=    0.500       N(1)  =     2000
   RHO(2)=  100.500       N(2)  =     4000



--------------------------------------------------------------------------------------------------------


 ion  position               nearest neighbor table
   1  0.000  0.000  0.000-   2 1.42   2 1.42   2 1.42
   2  0.333  0.667  0.020-   1 1.42   1 1.42   1 1.42

  LATTYP: Found a hexagonal cell.
 ALAT       =     2.4410462393
 C/A-ratio  =     4.0966040868
  
  Lattice vectors:
  
 A1 = (   2.4410462393,   0.0000000000,   0.0000000000)
 A2 = (  -1.2205231197,   2.1140080551,   0.0000000000)
 A3 = (   0.0000000000,   0.0000000000,  10.0000000000)


Analysis of symmetry for initial positions (statically):
=====================================================================
 Subroutine PRICEL returns:
 Original cell was already a primitive cell.
 

 Routine SETGRP: Setting up the symmetry group for a 
 hexagonal supercell.


 Subroutine GETGRP returns: Found 12 space group operations
 (whereof  6 operations were pure point group operations)
 out of a pool of 24 trial point group operations.


The static configuration has the point symmetry C_3v.
 The point group associated with its full space group is D_3d.


Analysis of symmetry for dynamics (positions and initial velocities):
=====================================================================
 Subroutine PRICEL returns:
 Original cell was already a primitive cell.
 

 Routine SETGRP: Setting up the symmetry group for a 
 hexagonal supercell.


 Subroutine GETGRP returns: Found 12 space group operations
 (whereof  6 operations were pure point group operations)
 out of a pool of 24 trial point group operations.


The dynamic configuration has the point symmetry C_3v.
 The point group associated with its full space group is D_3d.


Analysis of constrained symmetry for selective dynamics:
=====================================================================
 Subroutine PRICEL returns:
 Original cell was already a primitive cell.
 

 Routine SETGRP: Setting up the symmetry group for a 
 hexagonal supercell.


 Subroutine GETGRP returns: Found  6 space group operations
 (whereof  6 operations were pure point group operations)
 out of a pool of 24 trial point group operations.


The constrained configuration has the point symmetry C_3v.


 Subroutine INISYM returns: Found  6 space group operations
 (whereof  6 operations are pure point group operations),
 and found     1 'primitive' translations


----------------------------------------------------------------------------------------

                                     Primitive cell                                     

  volume of cell :      51.6039

  direct lattice vectors                    reciprocal lattice vectors
     2.441046239  0.000000000  0.000000000     0.409660409  0.236517547 -0.000000000
    -1.220523120  2.114008055  0.000000000     0.000000000  0.473035094  0.000000000
     0.000000000  0.000000000 10.000000000     0.000000000 -0.000000000  0.100000000

  length of vectors
     2.441046239  2.441046239 10.000000000     0.473035094  0.473035094  0.100000000

  position of ions in fractional coordinates (direct lattice)
     0.000000000  0.000000000  0.000000000
     0.333333333  0.666666667  0.020000000

  ion indices of the primitive-cell ions
   primitive index   ion index
                 1           1
                 2           2

----------------------------------------------------------------------------------------



 KPOINTS: K-Points                                

Automatic generation of k-mesh.
 Grid dimensions read from file:
 generate k-points for:    9    9    1

 Generating k-lattice:

  Cartesian coordinates                     Fractional coordinates (reciprocal lattice)
     0.045517823  0.026279727 -0.000000000     0.111111111  0.000000000  0.000000000
     0.000000000  0.052559455  0.000000000     0.000000000  0.111111111  0.000000000
     0.000000000 -0.000000000  0.100000000     0.000000000  0.000000000  1.000000000

  Length of vectors
     0.052559455  0.052559455  0.100000000

  Shift w.r.t. Gamma in fractional coordinates (k-lattice)
     0.000000000  0.000000000  0.000000000

 
 Subroutine IBZKPT returns following result:
 ===========================================
 
 Found     12 irreducible k-points:
 
 Following reciprocal coordinates:
            Coordinates               Weight
  0.000000  0.000000  0.000000      1.000000
  0.111111  0.000000  0.000000      6.000000
  0.222222  0.000000  0.000000      6.000000
  0.333333  0.000000  0.000000      6.000000
  0.444444  0.000000  0.000000      6.000000
  0.111111  0.111111  0.000000      6.000000
  0.222222  0.111111  0.000000     12.000000
  0.333333  0.111111  0.000000     12.000000
  0.444444  0.111111  0.000000      6.000000
  0.222222  0.222222  0.000000      6.000000
  0.333333  0.222222  0.000000     12.000000
  0.333333  0.333333  0.000000      2.000000
 
 Following cartesian coordinates:
            Coordinates               Weight
  0.000000  0.000000  0.000000      1.000000
  0.045518  0.026280  0.000000      6.000000
  0.091036  0.052559  0.000000      6.000000
  0.136553  0.078839  0.000000      6.000000
  0.182071  0.105119  0.000000      6.000000
  0.045518  0.078839  0.000000      6.000000
  0.091036  0.105119  0.000000     12.000000
  0.136553  0.131399  0.000000     12.000000
  0.182071  0.157678  0.000000      6.000000
  0.091036  0.157678  0.000000      6.000000
  0.136553  0.183958  0.000000     12.000000
  0.136553  0.236518  0.000000      2.000000
 


--------------------------------------------------------------------------------------------------------




 Dimension of arrays:
   k-points           NKPTS =     12   k-points in BZ     NKDIM =     12   number of bands    NBANDS=      8
   number of dos      NEDOS =    301   number of ions     NIONS =      2
   non local maximal  LDIM  =      4   non local SUM 2l+1 LMDIM =      8
   total plane-waves  NPLWV =   7200
   max r-space proj   IRMAX =   1228   max aug-charges    IRDMAX=   3128
   dimension x,y,z NGX =    12 NGY =   12 NGZ =   50
   dimension x,y,z NGXF=    24 NGYF=   24 NGZF=  100
   support grid    NGXF=    24 NGYF=   24 NGZF=  100
   ions per type =               2
   NGX,Y,Z   is equivalent  to a cutoff of   8.17,  8.17,  8.31 a.u.
   NGXF,Y,Z  is equivalent  to a cutoff of  16.35, 16.35, 16.62 a.u.

 SYSTEM =  unknown system                          
 POSCAR =  graphene                                

 Startparameter for this run:
   NWRITE =      2    write-flag & timer
   PREC   = normal    normal or accurate (medium, high low for compatibility)
   ISTART =      0    job   : 0-new  1-cont  2-samecut
   ICHARG =      2    charge: 1-file 2-atom 10-const
   ISPIN  =      1    spin polarized calculation?
   LNONCOLLINEAR =      F non collinear calculations
   LSORBIT =      F    spin-orbit coupling
   INIWAV =      1    electr: 0-lowe 1-rand  2-diag
   LASPH  =      F    aspherical Exc in radial PAW
 Electronic Relaxation 1
   ENCUT  =  400.0 eV  29.40 Ry    5.42 a.u.   3.98  3.98 16.31*2*pi/ulx,y,z
   ENINI  =  400.0     initial cutoff
   ENAUG  =  439.2 eV  augmentation charge cutoff
   NELM   =     60;   NELMIN=  2; NELMDL= -5     # of ELM steps 
   EDIFF  = 0.1E-04   stopping-criterion for ELM
   LREAL  =      T    real-space projection
   NLSPLINE    = F    spline interpolate recip. space projectors
   LCOMPAT=      F    compatible to vasp.4.4
   GGA_COMPAT  = T    GGA compatible to vasp.4.4-vasp.4.6
   LMAXPAW     = -100 max onsite density
   LMAXMIX     =    2 max onsite mixed and CHGCAR
   VOSKOWN=      0    Vosko Wilk Nusair interpolation
   ROPT   =   -0.00050
 Ionic relaxation
   EDIFFG = -.2E-01   stopping-criterion for IOM
   NSW    =    100    number of steps for IOM
   NBLOCK =      1;   KBLOCK =    100    inner block; outer block 
   IBRION =      2    ionic relax: 0-MD 1-quasi-New 2-CG
   NFREE  =      1    steps in history (QN), initial steepest desc. (CG)
   ISIF   =      3    stress and relaxation
   IWAVPR =     11    prediction:  0-non 1-charg 2-wave 3-comb
   ISYM   =      2    0-nonsym 1-usesym 2-fastsym
   LCORR  =      T    Harris-Foulkes like correction to forces

   POTIM  = 0.5000    time-step for ionic-motion
   TEIN   =    0.0    initial temperature
   TEBEG  =    0.0;   TEEND  =   0.0 temperature during run
   SMASS  =  -3.00    Nose mass-parameter (am)
   estimated Nose-frequenzy (Omega)   =  0.10E-29 period in steps = 0.13E+47 mass=  -0.136E-27a.u.
   SCALEE = 1.0000    scale energy and forces
   NPACO  =    256;   APACO  = 10.0  distance and # of slots for P.C.
   PSTRESS=    0.0 pullay stress

  Mass of Ions in am
   POMASS =  12.01
  Ionic Valenz
   ZVAL   =   4.00
  Atomic Wigner-Seitz radii
   RWIGS  =  -1.00
  virtual crystal weights 
   VCA    =   1.00
   NELECT =       8.0000    total number of electrons
   NUPDOWN=      -1.0000    fix difference up-down

 DOS related values:
   EMIN   =  10.00;   EMAX   =-10.00  energy-range for DOS
   EFERMI =   0.00;   METHOD = LEGACY      
   ISMEAR =     1;   SIGMA  =   0.20  broadening in eV -4-tet -1-fermi 0-gaus

 Electronic relaxation 2 (details)
   IALGO  =     38    algorithm
   LDIAG  =      T    sub-space diagonalisation (order eigenvalues)
   LSUBROT=      F    optimize rotation matrix (better conditioning)
   TURBO    =      0    0=normal 1=particle mesh
   IRESTART =      0    0=no restart 2=restart with 2 vectors
   NREBOOT  =      0    no. of reboots
   NMIN     =      0    reboot dimension
   EREF     =   0.00    reference energy to select bands
   IMIX   =      4    mixing-type and parameters
     AMIX     =   0.40;   BMIX     =  1.00
     AMIX_MAG =   1.60;   BMIX_MAG =  1.00
     AMIN     =   0.10
     WC   =   100.;   INIMIX=   1;  MIXPRE=   1;  MAXMIX= -45

 Intra band minimization:
   WEIMIN = 0.0010     energy-eigenvalue tresh-hold
   EBREAK =  0.31E-06  absolut break condition
   DEPER  =   0.30     relativ break condition  

   TIME   =   0.40     timestep for ELM

  volume/ion in A,a.u.               =      25.80       174.12
  Fermi-wavevector in a.u.,A,eV,Ry     =   0.879449  1.661917 10.523159  0.773430
  Thomas-Fermi vector in A             =   1.999674

 Write flags
   LWAVE        =      F    write WAVECAR
   LDOWNSAMPLE  =      F    k-point downsampling of WAVECAR
   LCHARG       =      F    write CHGCAR
   LVTOT        =      F    write LOCPOT, total local potential
   LVHAR        =      F    write LOCPOT, Hartree potential only
   WRT_POTENTIAL= false  ! write potential to hdf5 file
   LELF         =      F    write electronic localiz. function (ELF)
   LORBIT       =      0    0 simple, 1 ext, 2 COOP (PROOUT), +10 PAW based schemes


 Dipole corrections
   LMONO      =      F    monopole corrections only (constant potential shift)
   LDIPOL     =      F    correct potential (dipole corrections)
   IDIPOL     =      0    1-x, 2-y, 3-z, 4-all directions 
   EPSILON    =  1.0000000 bulk dielectric constant
   LVACPOTAV  =      F  vacuum potentials using an averaging scheme for the charge density
   VACPOTFLAT =  0.1000000 required flatness to determine vacuum potential
 Exchange correlation treatment:
   GGA     = PE    functional components
   XC_C    = 1    coefficients multiplying the functional components
   LIBXC   =     F    Libxc                    
   VOSKOWN =     0    Vosko Wilk Nusair interpolation
   LHFCALC =     F    Hartree Fock is set to
   LHFONE  =     F    Hartree Fock one center treatment
   AEXX    =    0.0000 exact exchange contribution

 Parameters of functionals:
   PE:
     No parameter

 Van der Waals corrections
   IVDW    =     0    specifies the selected vdW correction

 Linear response parameters
   LEPSILON=     F    determine dielectric tensor
   LRPA    =     F    only Hartree local field effects (RPA)
   LNABLA  =     F    use nabla operator in PAW spheres
   LVEL    =     F    velocity operator in full k-point grid
   CSHIFT  =0.1000    complex shift for real part using Kramers Kronig
   OMEGAMAX=  -1.0    maximum frequency
   DEG_THRESHOLD= 0.2000000E-02 threshold for treating states as degnerate
   RTIME   =   -0.100 relaxation time in fs
  (WPLASMAI=    0.000 imaginary part of plasma frequency in eV, 0.658/RTIME)
   DFIELD  = 0.0000000 0.0000000 0.0000000 field for delta impulse in time

  Optional k-point grid parameters
   LKPOINTS_OPT  =     F    use optional k-point grid
   KPOINTS_OPT_MODE=     1    mode for optional k-point grid

 Orbital magnetization related:
   ORBITALMAG=     F  switch on orbital magnetization
   LCHIMAG   =     F  perturbation theory with respect to B field
   DQ        =  0.001000  dq finite difference perturbation B field
   LLRAUG    =     F  two centre corrections for induced B field
   LBONE     =     F  B-component reconstruction in AE one-centre
   LVGVCALC  =     T  calculate vGv susceptibility
   LVGVAPPL  =     F  apply vGv susceptibility instead of pGv for G=0

 Random number generation:
   RANDOM_GENERATOR = DEFAULT
   PCG_SEED         = not used


--------------------------------------------------------------------------------------------------------


 conjugate gradient relaxation of ions
   using selective dynamics as specified on POSCAR
 charge density and potential will be updated during run
 non-spin polarized calculation
 Variant of blocked Davidson
 Davidson routine will perform the subspace rotation
 perform sub-space diagonalisation
    after iterative eigenvector-optimisation
 modified Broyden-mixing scheme, WC =      100.0
 initial mixing is a Kerker type mixing with AMIX =  0.4000 and BMIX =      1.0000
 Hartree-type preconditioning will be used
 using additional bands            4
 real space projection scheme for non local part
 calculate Harris-corrections to forces   (improved forces if not selfconsistent)
 use gradient corrections 
 use of overlap-Matrix (Vanderbilt PP)
 Methfessel and Paxton  Order N= 1 SIGMA  =   0.20


--------------------------------------------------------------------------------------------------------


  energy-cutoff  :      400.00
  volume of cell :       51.60
      direct lattice vectors                 reciprocal lattice vectors
     2.441046239  0.000000000  0.000000000     0.409660409  0.236517547 -0.000000000
    -1.220523120  2.114008055  0.000000000     0.000000000  0.473035094  0.000000000
     0.000000000  0.000000000 10.000000000     0.000000000 -0.000000000  0.100000000

  length of vectors
     2.441046239  2.441046239 10.000000000     0.473035094  0.473035094  0.100000000



 k-points in units of 2pi/SCALE and weight: K-Points                                
   0.00000000  0.00000000  0.00000000       0.012
   0.04551782  0.02627973  0.00000000       0.074
   0.09103565  0.05255945  0.00000000       0.074
   0.13655347  0.07883918  0.00000000       0.074
   0.18207129  0.10511891  0.00000000       0.074
   0.04551782  0.07883918  0.00000000       0.074
   0.09103565  0.10511891  0.00000000       0.148
   0.13655347  0.13139864  0.00000000       0.148
   0.18207129  0.15767836  0.00000000       0.074
   0.09103565  0.15767836  0.00000000       0.074
   0.13655347  0.18395809  0.00000000       0.148
   0.13655347  0.23651755  0.00000000       0.025

 k-points in reciprocal lattice and weights: K-Points                                
   0.00000000  0.00000000  0.00000000       0.012
   0.11111111  0.00000000  0.00000000       0.074
   0.22222222  0.00000000  0.00000000       0.074
   0.33333333  0.00000000  0.00000000       0.074
   0.44444444  0.00000000  0.00000000       0.074
   0.11111111  0.11111111  0.00000000       0.074
   0.22222222  0.11111111  0.00000000       0.148
   0.33333333  0.11111111  0.00000000       0.148
   0.44444444  0.11111111  0.00000000       0.074
   0.22222222  0.22222222  0.00000000       0.074
   0.33333333  0.22222222  0.00000000       0.148
   0.33333333  0.33333333  0.00000000       0.025

 position of ions in fractional coordinates (direct lattice) 
   0.00000000  0.00000000  0.00000000
   0.33333333  0.66666667  0.02000000

 position of ions in cartesian coordinates  (Angst):
   0.00000000  0.00000000  0.00000000
  -0.00000000  1.40933870  0.20000000



--------------------------------------------------------------------------------------------------------


 k-point     1 :   0.0000 0.0000 0.0000  plane waves:     909
 k-point     2 :   0.1111 0.0000 0.0000  plane waves:     907
 k-point     3 :   0.2222 0.0000 0.0000  plane waves:     919
 k-point     4 :   0.3333 0.0000 0.0000  plane waves:     943
 k-point     5 :   0.4444 0.0000 0.0000  plane waves:     937
 k-point     6 :   0.1111 0.1111 0.0000  plane waves:     926
 k-point     7 :   0.2222 0.1111 0.0000  plane waves:     940
 k-point     8 :   0.3333 0.1111 0.0000  plane waves:     949
 k-point     9 :   0.4444 0.1111 0.0000  plane waves:     954
 k-point    10 :   0.2222 0.2222 0.0000  plane waves:     948
 k-point    11 :   0.3333 0.2222 0.0000  plane waves:     943
 k-point    12 :   0.3333 0.3333 0.0000  plane waves:     936

 maximum and minimum number of plane-waves per node :       954      907

 maximum number of plane-waves:       954
 maximum index in each direction: 
   IXMAX=    3   IYMAX=    3   IZMAX=   16
   IXMIN=   -4   IYMIN=   -4   IZMIN=  -16


 serial   3D FFT for wavefunctions
 parallel 3D FFT for charge:
    minimum data exchange during FFTs selected (reduces bandwidth)


 total amount of memory used by VASP MPI-rank0    32087. kBytes
=======================================================================

   base      :      30000. kBytes
   nonlr-proj:        203. kBytes
   fftplans  :        515. kBytes
   grid      :        990. kBytes
   one-center:          6. kBytes
   wavefun   :        373. kBytes

     INWAV:  cpu time      0.0000: real time      0.0000
 Broyden mixing: mesh for mixing (old mesh)
   NGX =  7   NGY =  7   NGZ = 33
  (NGX  = 24   NGY  = 24   NGZ  =100)
  gives a total of   1617 points

 initial charge density was supplied:
 charge density of overlapping atoms calculated
 number of electron       8.0000000 magnetization 
 keeping initial charge density in first step


--------------------------------------------------------------------------------------------------------


 Maximum index for non-local projection operator         1159
 Maximum index for augmentation-charges          721 (set IRDMAX)


--------------------------------------------------------------------------------------------------------


 First call to EWALD:  gamma=   0.476
 Maximum number of real-space cells 4x 4x 1
 Maximum number of reciprocal cells 2x 2x 7

    FEWALD:  cpu time      0.0006: real time      0.0006


--------------------------------------- Ionic step        1  -------------------------------------------




--------------------------------------- Iteration      1(   1)  ---------------------------------------


    POTLOK:  cpu time      0.0083: real time      0.0083
    SETDIJ:  cpu time      0.0012: real time      0.0012
     EDDAV:  cpu time      0.0464: real time      0.0464
       DOS:  cpu time      0.0002: real time      0.0002
    --------------------------------------------
      LOOP:  cpu time      0.0561: real time      0.0561

 eigenvalue-minimisations  :   192
 total energy-change (2. order) : 0.3583818E+02  (-0.3009314E+03)
 number of electron       8.0000000 magnetization 
 augmentation part        8.0000000 magnetization 

 Free energy of the ion-electron system (eV)
  ---------------------------------------------------
  alpha Z        PSCENC =         3.71250722
  Ewald energy   TEWEN  =       385.70992662
  -Hartree energ DENC   =      -618.24083069
  -exchange      EXHF   =         0.00000000
  -V(xc)+E(xc)   XCENC  =        27.64434795
  PAW double counting   =       216.69781520     -218.18290364
  entropy T*S    EENTRO =        -0.00045925
  eigenvalues    EBANDS =       -55.80506319
  atomic energy  EATOM  =       294.30283995
  Solvation  Ediel_sol  =         0.00000000
  ---------------------------------------------------
  free energy    TOTEN  =        35.83818017 eV

  energy without entropy =       35.83863942  energy(sigma->0) =       35.83833326


--------------------------------------------------------------------------------------------------------




--------------------------------------- Iteration      1(   2)  ---------------------------------------


     EDDAV:  cpu time      0.0607: real time      0.0607
       DOS:  cpu time      0.0001: real time      0.0001
    --------------------------------------------
      LOOP:  cpu time      0.0608: real time      0.0608

 eigenvalue-minimisations  :   256
 total energy-change (2. order) :-0.5334704E+02  (-0.4872502E+02)
 number of electron       8.0000000 magnetization 
 augmentation part        8.0000000 magnetization 

 Free energy of the ion-electron system (eV)
  ---------------------------------------------------
  alpha Z        PSCENC =         3.71250722
  Ewald energy   TEWEN  =       385.70992662
  -Hartree energ DENC   =      -618.24083069
  -exchange      EXHF   =         0.00000000
  -V(xc)+E(xc)   XCENC  =        27.64434795
  PAW double counting   =       216.69781520     -218.18290364
  entropy T*S    EENTRO =        -0.00124269
  eigenvalues    EBANDS =      -109.15131710
  atomic energy  EATOM  =       294.30283995
  Solvation  Ediel_sol  =         0.00000000
  ---------------------------------------------------
  free energy    TOTEN  =       -17.50885718 eV

  energy without entropy =      -17.50761449  energy(sigma->0) =      -17.50844295


--------------------------------------------------------------------------------------------------------




--------------------------------------- Iteration      1(   3)  ---------------------------------------


     EDDAV:  cpu time      0.0590: real time      0.0590
       DOS:  cpu time      0.0002: real time      0.0002
    --------------------------------------------
      LOOP:  cpu time      0.0591: real time      0.0591

 eigenvalue-minimisations  :   248
 total energy-change (2. order) :-0.1835020E+01  (-0.1833480E+01)
 number of electron       8.0000000 magnetization 
 augmentation part        8.0000000 magnetization 

 Free energy of the ion-electron system (eV)
  ---------------------------------------------------
  alpha Z        PSCENC =         3.71250722
  Ewald energy   TEWEN  =       385.70992662
  -Hartree energ DENC   =      -618.24083069
  -exchange      EXHF   =         0.00000000
  -V(xc)+E(xc)   XCENC  =        27.64434795
  PAW double counting   =       216.69781520     -218.18290364
  entropy T*S    EENTRO =        -0.00278612
  eigenvalues    EBANDS =      -110.98479401
  atomic energy  EATOM  =       294.30283995
  Solvation  Ediel_sol  =         0.00000000
  ---------------------------------------------------
  free energy    TOTEN  =       -19.34387752 eV

  energy without entropy =      -19.34109140  energy(sigma->0) =      -19.34294882


--------------------------------------------------------------------------------------------------------




--------------------------------------- Iteration      1(   4)  ---------------------------------------


     EDDAV:  cpu time      0.0812: real time      0.0812
       DOS:  cpu time      0.0001: real time      0.0001
    --------------------------------------------
      LOOP:  cpu time      0.0813: real time      0.0813

 eigenvalue-minimisations  :   344
 total energy-change (2. order) :-0.3062274E-01  (-0.3062274E-01)
 number of electron       8.0000000 magnetization 
 augmentation part        8.0000000 magnetization 

 Free energy of the ion-electron system (eV)
  ---------------------------------------------------
  alpha Z        PSCENC =         3.71250722
  Ewald energy   TEWEN  =       385.70992662
  -Hartree energ DENC   =      -618.24083069
  -exchange      EXHF   =         0.00000000
  -V(xc)+E(xc)   XCENC  =        27.64434795
  PAW double counting   =       216.69781520     -218.18290364
  entropy T*S    EENTRO =        -0.00278612
  eigenvalues    EBANDS =      -111.01541675
  atomic energy  EATOM  =       294.30283995
  Solvation  Ediel_sol  =         0.00000000
  ---------------------------------------------------
  free energy    TOTEN  =       -19.37450026 eV

  energy without entropy =      -19.37171414  energy(sigma->0) =      -19.37357156


--------------------------------------------------------------------------------------------------------




--------------------------------------- Iteration      1(   5)  ---------------------------------------


     EDDAV:  cpu time      0.0645: real time      0.0646
       DOS:  cpu time      0.0002: real time      0.0002
    CHARGE:  cpu time      0.0036: real time      0.0036
    MIXING:  cpu time      0.0003: real time      0.0003
    --------------------------------------------
      LOOP:  cpu time      0.0687: real time      0.0687

 eigenvalue-minimisations  :   256
 total energy-change (2. order) :-0.9455072E-05  (-0.9455087E-05)
 number of electron       7.9999985 magnetization 
 augmentation part        0.3998647 magnetization 

 Broyden mixing:
  rms(total) = 0.17868E+01    rms(broyden)= 0.17868E+01
  rms(prec ) = 0.18487E+01
  weight for this iteration     100.00

 Free energy of the ion-electron system (eV)
  ---------------------------------------------------
  alpha Z        PSCENC =         3.71250722
  Ewald energy   TEWEN  =       385.70992662
  -Hartree energ DENC   =      -618.24083069
  -exchange      EXHF   =         0.00000000
  -V(xc)+E(xc)   XCENC  =        27.64434795
  PAW double counting   =       216.69781520     -218.18290364
  entropy T*S    EENTRO =        -0.00278612
  eigenvalues    EBANDS =      -111.01542621
  atomic energy  EATOM  =       294.30283995
  Solvation  Ediel_sol  =         0.00000000
  ---------------------------------------------------
  free energy    TOTEN  =       -19.37450972 eV

  energy without entropy =      -19.37172360  energy(sigma->0) =      -19.37358101


--------------------------------------------------------------------------------------------------------




--------------------------------------- Iteration      1(   6)  ---------------------------------------


    POTLOK:  cpu time      0.0080: real time      0.0080
    SETDIJ:  cpu time      0.0011: real time      0.0011
     EDDAV:  cpu time      0.0996: real time      0.0996
       DOS:  cpu time      0.0002: real time      0.0002
    CHARGE:  cpu time      0.0035: real time      0.0035
    MIXING:  cpu time      0.0004: real time      0.0004
    --------------------------------------------
      LOOP:  cpu time      0.1128: real time      0.1128

 eigenvalue-minimisations  :   328
 total energy-change (2. order) : 0.9486831E+00  (-0.9040827E-01)
 number of electron       7.9999986 magnetization 
 augmentation part        0.3676944 magnetization 

 Broyden mixing:
  rms(total) = 0.12696E+01    rms(broyden)= 0.12696E+01
  rms(prec ) = 0.12956E+01
  weight for this iteration     100.00

 eigenvalues of (default mixing * dielectric matrix)
  average eigenvalue GAMMA=   3.2642
  3.2642

 Free energy of the ion-electron system (eV)
  ---------------------------------------------------
  alpha Z        PSCENC =         3.71250722
  Ewald energy   TEWEN  =       385.70992662
  -Hartree energ DENC   =      -628.82215473
  -exchange      EXHF   =         0.00000000
  -V(xc)+E(xc)   XCENC  =        28.12980875
  PAW double counting   =       817.68573063     -819.41064118
  entropy T*S    EENTRO =        -0.00278612
  eigenvalues    EBANDS =       -99.73105779
  atomic energy  EATOM  =       294.30283995
  Solvation  Ediel_sol  =         0.00000000
  ---------------------------------------------------
  free energy    TOTEN  =       -18.42582664 eV

  energy without entropy =      -18.42304052  energy(sigma->0) =      -18.42489793


--------------------------------------------------------------------------------------------------------




--------------------------------------- Iteration      1(   7)  ---------------------------------------


    POTLOK:  cpu time      0.0080: real time      0.0080
    SETDIJ:  cpu time      0.0011: real time      0.0011
     EDDAV:  cpu time      0.1050: real time      0.1050
       DOS:  cpu time      0.0002: real time      0.0002
    CHARGE:  cpu time      0.0039: real time      0.0039
    MIXING:  cpu time      0.0004: real time      0.0004
    --------------------------------------------
      LOOP:  cpu time      0.1187: real time      0.1187

 eigenvalue-minimisations  :   344
 total energy-change (2. order) : 0.3179399E+00  (-0.2336070E+00)
 number of electron       7.9999987 magnetization 
 augmentation part        0.3208503 magnetization 

 Broyden mixing:
  rms(total) = 0.16298E+00    rms(broyden)= 0.16296E+00
  rms(prec ) = 0.20413E+00
  weight for this iteration     100.00

 eigenvalues of (default mixing * dielectric matrix)
  average eigenvalue GAMMA=   2.2217
  2.2217  2.2217

 Free energy of the ion-electron system (eV)
  ---------------------------------------------------
  alpha Z        PSCENC =         3.71250722
  Ewald energy   TEWEN  =       385.70992662
  -Hartree energ DENC   =      -648.84514589
  -exchange      EXHF   =         0.00000000
  -V(xc)+E(xc)   XCENC  =        29.05251758
  PAW double counting   =      3541.43970983    -3543.65433097
  entropy T*S    EENTRO =        -0.00278612
  eigenvalues    EBANDS =       -79.82312495
  atomic energy  EATOM  =       294.30283995
  Solvation  Ediel_sol  =         0.00000000
  ---------------------------------------------------
  free energy    TOTEN  =       -18.10788672 eV

  energy without entropy =      -18.10510061  energy(sigma->0) =      -18.10695802


--------------------------------------------------------------------------------------------------------




--------------------------------------- Iteration      1(   8)  ---------------------------------------


    POTLOK:  cpu time      0.0079: real time      0.0079
    SETDIJ:  cpu time      0.0011: real time      0.0011
     EDDAV:  cpu time      0.0711: real time      0.0711
       DOS:  cpu time      0.0002: real time      0.0002
    CHARGE:  cpu time      0.0038: real time      0.0038
    MIXING:  cpu time      0.0004: real time      0.0004
    --------------------------------------------
      LOOP:  cpu time      0.0846: real time      0.0846

 eigenvalue-minimisations  :   240
 total energy-change (2. order) : 0.6682261E-01  (-0.2538647E-01)
 number of electron       7.9999987 magnetization 
 augmentation part        0.3362696 magnetization 

 Broyden mixing:
  rms(total) = 0.26698E-01    rms(broyden)= 0.26695E-01
  rms(prec ) = 0.44663E-01
  weight for this iteration     100.00

 eigenvalues of (default mixing * dielectric matrix)
  average eigenvalue GAMMA=   1.7813
  2.2565  2.2565  0.8307

 Free energy of the ion-electron system (eV)
  ---------------------------------------------------
  alpha Z        PSCENC =         3.71250722
  Ewald energy   TEWEN  =       385.70992662
  -Hartree energ DENC   =      -644.41338852
  -exchange      EXHF   =         0.00000000
  -V(xc)+E(xc)   XCENC  =        28.76457557
  PAW double counting   =      3181.02760700    -3183.09614704
  entropy T*S    EENTRO =        -0.00278612
  eigenvalues    EBANDS =       -84.04619881
  atomic energy  EATOM  =       294.30283995
  Solvation  Ediel_sol  =         0.00000000
  ---------------------------------------------------
  free energy    TOTEN  =       -18.04106411 eV

  energy without entropy =      -18.03827800  energy(sigma->0) =      -18.04013541


--------------------------------------------------------------------------------------------------------




--------------------------------------- Iteration      1(   9)  ---------------------------------------


    POTLOK:  cpu time      0.0079: real time      0.0079
    SETDIJ:  cpu time      0.0011: real time      0.0011
     EDDAV:  cpu time      0.0791: real time      0.0791
       DOS:  cpu time      0.0002: real time      0.0002
    CHARGE:  cpu time      0.0038: real time      0.0038
    MIXING:  cpu time      0.0004: real time      0.0004
    --------------------------------------------
      LOOP:  cpu time      0.0925: real time      0.0925

 eigenvalue-minimisations  :   264
 total energy-change (2. order) : 0.1840950E-02  (-0.3775554E-03)
 number of electron       7.9999987 magnetization 
 augmentation part        0.3362205 magnetization 

 Broyden mixing:
  rms(total) = 0.11643E-01    rms(broyden)= 0.11642E-01
  rms(prec ) = 0.32655E-01
  weight for this iteration     100.00

 eigenvalues of (default mixing * dielectric matrix)
  average eigenvalue GAMMA=   1.5472
  2.2950  2.1761  0.8589  0.8589

 Free energy of the ion-electron system (eV)
  ---------------------------------------------------
  alpha Z        PSCENC =         3.71250722
  Ewald energy   TEWEN  =       385.70992662
  -Hartree energ DENC   =      -645.20983979
  -exchange      EXHF   =         0.00000000
  -V(xc)+E(xc)   XCENC  =        28.78128950
  PAW double counting   =      3225.70895599    -3227.78122561
  entropy T*S    EENTRO =        -0.00278612
  eigenvalues    EBANDS =       -83.26089094
  atomic energy  EATOM  =       294.30283995
  Solvation  Ediel_sol  =         0.00000000
  ---------------------------------------------------
  free energy    TOTEN  =       -18.03922316 eV

  energy without entropy =      -18.03643704  energy(sigma->0) =      -18.03829446


--------------------------------------------------------------------------------------------------------




--------------------------------------- Iteration      1(  10)  ---------------------------------------


    POTLOK:  cpu time      0.0079: real time      0.0079
    SETDIJ:  cpu time      0.0011: real time      0.0011
     EDDAV:  cpu time      0.0804: real time      0.0804
       DOS:  cpu time      0.0002: real time      0.0002
    CHARGE:  cpu time      0.0038: real time      0.0038
    MIXING:  cpu time      0.0004: real time      0.0004
    --------------------------------------------
      LOOP:  cpu time      0.0938: real time      0.0938

 eigenvalue-minimisations  :   264
 total energy-change (2. order) : 0.1474409E-02  (-0.5773729E-04)
 number of electron       7.9999987 magnetization 
 augmentation part        0.3357803 magnetization 

 Broyden mixing:
  rms(total) = 0.68986E-02    rms(broyden)= 0.68984E-02
  rms(prec ) = 0.26032E-01
  weight for this iteration     100.00

 eigenvalues of (default mixing * dielectric matrix)
  average eigenvalue GAMMA=   2.0226
  3.8184  2.4703  1.9586  0.9328  0.9328

 Free energy of the ion-electron system (eV)
  ---------------------------------------------------
  alpha Z        PSCENC =         3.71250722
  Ewald energy   TEWEN  =       385.70992662
  -Hartree energ DENC   =      -646.01972054
  -exchange      EXHF   =         0.00000000
  -V(xc)+E(xc)   XCENC  =        28.79547264
  PAW double counting   =      3211.73000995    -3213.80279115
  entropy T*S    EENTRO =        -0.00278612
  eigenvalues    EBANDS =       -82.46320734
  atomic energy  EATOM  =       294.30283995
  Solvation  Ediel_sol  =         0.00000000
  ---------------------------------------------------
  free energy    TOTEN  =       -18.03774875 eV

  energy without entropy =      -18.03496263  energy(sigma->0) =      -18.03682005


--------------------------------------------------------------------------------------------------------




--------------------------------------- Iteration      1(  11)  ---------------------------------------


    POTLOK:  cpu time      0.0081: real time      0.0081
    SETDIJ:  cpu time      0.0011: real time      0.0011
     EDDAV:  cpu time      0.0589: real time      0.0589
       DOS:  cpu time      0.0002: real time      0.0002
    CHARGE:  cpu time      0.0038: real time      0.0038
    MIXING:  cpu time      0.0004: real time      0.0004
    --------------------------------------------
      LOOP:  cpu time      0.0725: real time      0.0725

 eigenvalue-minimisations  :   200
 total energy-change (2. order) : 0.2881169E-02  (-0.4194371E-03)
 number of electron       7.9999987 magnetization 
 augmentation part        0.3351651 magnetization 

 Broyden mixing:
  rms(total) = 0.44691E-02    rms(broyden)= 0.44673E-02
  rms(prec ) = 0.83257E-02
  weight for this iteration     100.00

 eigenvalues of (default mixing * dielectric matrix)
  average eigenvalue GAMMA=   2.4452
  5.5794  2.6488  2.6488  1.8797  0.9571  0.9571

 Free energy of the ion-electron system (eV)
  ---------------------------------------------------
  alpha Z        PSCENC =         3.71250722
  Ewald energy   TEWEN  =       385.70992662
  -Hartree energ DENC   =      -649.06890398
  -exchange      EXHF   =         0.00000000
  -V(xc)+E(xc)   XCENC  =        28.83707054
  PAW double counting   =      3211.27479015    -3213.34531698
  entropy T*S    EENTRO =        -0.00278612
  eigenvalues    EBANDS =       -79.45499498
  atomic energy  EATOM  =       294.30283995
  Solvation  Ediel_sol  =         0.00000000
  ---------------------------------------------------
  free energy    TOTEN  =       -18.03486759 eV

  energy without entropy =      -18.03208146  energy(sigma->0) =      -18.03393888


--------------------------------------------------------------------------------------------------------




--------------------------------------- Iteration      1(  12)  ---------------------------------------


    POTLOK:  cpu time      0.0079: real time      0.0079
    SETDIJ:  cpu time      0.0011: real time      0.0011
     EDDAV:  cpu time      0.0683: real time      0.0683
       DOS:  cpu time      0.0002: real time      0.0002
    CHARGE:  cpu time      0.0038: real time      0.0038
    MIXING:  cpu time      0.0004: real time      0.0004
    --------------------------------------------
      LOOP:  cpu time      0.0818: real time      0.0818

 eigenvalue-minimisations  :   232
 total energy-change (2. order) :-0.2327986E-02  (-0.3521162E-04)
 number of electron       7.9999987 magnetization 
 augmentation part        0.3349267 magnetization 

 Broyden mixing:
  rms(total) = 0.26437E-02    rms(broyden)= 0.26433E-02
  rms(prec ) = 0.32218E-02
  weight for this iteration     100.00

 eigenvalues of (default mixing * dielectric matrix)
  average eigenvalue GAMMA=   2.4050
  6.6798  2.9506  2.4452  1.9804  0.9465  0.9465  0.8858

 Free energy of the ion-electron system (eV)
  ---------------------------------------------------
  alpha Z        PSCENC =         3.71250722
  Ewald energy   TEWEN  =       385.70992662
  -Hartree energ DENC   =      -649.48093779
  -exchange      EXHF   =         0.00000000
  -V(xc)+E(xc)   XCENC  =        28.83444580
  PAW double counting   =      3208.77133624    -3210.84325261
  entropy T*S    EENTRO =        -0.00278612
  eigenvalues    EBANDS =       -79.04127489
  atomic energy  EATOM  =       294.30283995
  Solvation  Ediel_sol  =         0.00000000
  ---------------------------------------------------
  free energy    TOTEN  =       -18.03719557 eV

  energy without entropy =      -18.03440945  energy(sigma->0) =      -18.03626687


--------------------------------------------------------------------------------------------------------




--------------------------------------- Iteration      1(  13)  ---------------------------------------


    POTLOK:  cpu time      0.0080: real time      0.0080
    SETDIJ:  cpu time      0.0011: real time      0.0011
     EDDAV:  cpu time      0.0611: real time      0.0611
       DOS:  cpu time      0.0002: real time      0.0002
    CHARGE:  cpu time      0.0038: real time      0.0038
    MIXING:  cpu time      0.0005: real time      0.0005
    --------------------------------------------
      LOOP:  cpu time      0.0746: real time      0.0746

 eigenvalue-minimisations  :   208
 total energy-change (2. order) :-0.3451596E-03  (-0.6846987E-05)
 number of electron       7.9999987 magnetization 
 augmentation part        0.3350811 magnetization 

 Broyden mixing:
  rms(total) = 0.18653E-02    rms(broyden)= 0.18653E-02
  rms(prec ) = 0.20209E-02
  weight for this iteration     100.00

 eigenvalues of (default mixing * dielectric matrix)
  average eigenvalue GAMMA=   2.5904
  7.7995  3.4572  2.4454  2.1441  1.9563  0.9972  0.9618  0.9618

 Free energy of the ion-electron system (eV)
  ---------------------------------------------------
  alpha Z        PSCENC =         3.71250722
  Ewald energy   TEWEN  =       385.70992662
  -Hartree energ DENC   =      -649.36849042
  -exchange      EXHF   =         0.00000000
  -V(xc)+E(xc)   XCENC  =        28.82999394
  PAW double counting   =      3209.12874598    -3211.19950955
  entropy T*S    EENTRO =        -0.00278612
  eigenvalues    EBANDS =       -79.15076834
  atomic energy  EATOM  =       294.30283995
  Solvation  Ediel_sol  =         0.00000000
  ---------------------------------------------------
  free energy    TOTEN  =       -18.03754073 eV

  energy without entropy =      -18.03475461  energy(sigma->0) =      -18.03661202


--------------------------------------------------------------------------------------------------------




--------------------------------------- Iteration      1(  14)  ---------------------------------------


    POTLOK:  cpu time      0.0079: real time      0.0079
    SETDIJ:  cpu time      0.0011: real time      0.0011
     EDDAV:  cpu time      0.0585: real time      0.0585
       DOS:  cpu time      0.0002: real time      0.0002
    CHARGE:  cpu time      0.0038: real time      0.0038
    MIXING:  cpu time      0.0005: real time      0.0005
    --------------------------------------------
      LOOP:  cpu time      0.0720: real time      0.0720

 eigenvalue-minimisations  :   200
 total energy-change (2. order) :-0.2828639E-03  (-0.4644228E-05)
 number of electron       7.9999987 magnetization 
 augmentation part        0.3350847 magnetization 

 Broyden mixing:
  rms(total) = 0.35378E-03    rms(broyden)= 0.35363E-03
  rms(prec ) = 0.39325E-03
  weight for this iteration     100.00

 eigenvalues of (default mixing * dielectric matrix)
  average eigenvalue GAMMA=   2.5372
  8.0852  3.8509  2.6073  2.4503  1.9859  1.0090  0.9135  0.9662  0.9662

 Free energy of the ion-electron system (eV)
  ---------------------------------------------------
  alpha Z        PSCENC =         3.71250722
  Ewald energy   TEWEN  =       385.70992662
  -Hartree energ DENC   =      -649.35810226
  -exchange      EXHF   =         0.00000000
  -V(xc)+E(xc)   XCENC  =        28.82953813
  PAW double counting   =      3208.85906129    -3210.92967847
  entropy T*S    EENTRO =        -0.00278612
  eigenvalues    EBANDS =       -79.16112997
  atomic energy  EATOM  =       294.30283995
  Solvation  Ediel_sol  =         0.00000000
  ---------------------------------------------------
  free energy    TOTEN  =       -18.03782360 eV

  energy without entropy =      -18.03503747  energy(sigma->0) =      -18.03689489


--------------------------------------------------------------------------------------------------------




--------------------------------------- Iteration      1(  15)  ---------------------------------------


    POTLOK:  cpu time      0.0079: real time      0.0080
    SETDIJ:  cpu time      0.0011: real time      0.0011
     EDDAV:  cpu time      0.0785: real time      0.0785
       DOS:  cpu time      0.0002: real time      0.0002
    CHARGE:  cpu time      0.0038: real time      0.0038
    MIXING:  cpu time      0.0005: real time      0.0005
    --------------------------------------------
      LOOP:  cpu time      0.0920: real time      0.0920

 eigenvalue-minimisations  :   264
 total energy-change (2. order) :-0.1890728E-04  (-0.9725831E-07)
 number of electron       7.9999987 magnetization 
 augmentation part        0.3350791 magnetization 

 Broyden mixing:
  rms(total) = 0.14275E-03    rms(broyden)= 0.14240E-03
  rms(prec ) = 0.14928E-03
  weight for this iteration     100.00

 eigenvalues of (default mixing * dielectric matrix)
  average eigenvalue GAMMA=   2.5259
  8.1362  3.9879  2.6750  2.6308  2.0182  2.0182  0.9978  0.9978  0.9395  0.8576

 Free energy of the ion-electron system (eV)
  ---------------------------------------------------
  alpha Z        PSCENC =         3.71250722
  Ewald energy   TEWEN  =       385.70992662
  -Hartree energ DENC   =      -649.36374093
  -exchange      EXHF   =         0.00000000
  -V(xc)+E(xc)   XCENC  =        28.82979512
  PAW double counting   =      3208.55680481    -3210.62744687
  entropy T*S    EENTRO =        -0.00278612
  eigenvalues    EBANDS =       -79.15574230
  atomic energy  EATOM  =       294.30283995
  Solvation  Ediel_sol  =         0.00000000
  ---------------------------------------------------
  free energy    TOTEN  =       -18.03784250 eV

  energy without entropy =      -18.03505638  energy(sigma->0) =      -18.03691380


--------------------------------------------------------------------------------------------------------




--------------------------------------- Iteration      1(  16)  ---------------------------------------


    POTLOK:  cpu time      0.0080: real time      0.0080
    SETDIJ:  cpu time      0.0011: real time      0.0011
     EDDAV:  cpu time      0.0691: real time      0.0691
       DOS:  cpu time      0.0002: real time      0.0002
    --------------------------------------------
      LOOP:  cpu time      0.0784: real time      0.0784

 eigenvalue-minimisations  :   232
 total energy-change (2. order) :-0.3706864E-05  (-0.1280550E-07)
 number of electron       7.9999987 magnetization 
 augmentation part        0.3350791 magnetization 

 Free energy of the ion-electron system (eV)
  ---------------------------------------------------
  alpha Z        PSCENC =         3.71250722
  Ewald energy   TEWEN  =       385.70992662
  -Hartree energ DENC   =      -649.36514735
  -exchange      EXHF   =         0.00000000
  -V(xc)+E(xc)   XCENC  =        28.82985342
  PAW double counting   =      3208.35655622    -3210.42719807
  entropy T*S    EENTRO =        -0.00278612
  eigenvalues    EBANDS =       -79.15439809
  atomic energy  EATOM  =       294.30283995
  Solvation  Ediel_sol  =         0.00000000
  ---------------------------------------------------
  free energy    TOTEN  =       -18.03784621 eV

  energy without entropy =      -18.03506009  energy(sigma->0) =      -18.03691750


--------------------------------------------------------------------------------------------------------




 average (electrostatic) potential at core
  the test charge radii are     0.8471
  (the norm of the test charge is              1.0000)
       1 -80.9577       2 -80.9577



 E-fermi :  -0.9021     XC(G=0):  -4.3232     alpha+bet : -4.2260

 val. band max:       -0.9020716623   @ k =   0.3333   0.3333   0.0000
 cond. band min:      -0.9020672616   @ k =   0.3333   0.3333   0.0000
 fundamental gap:      0.0000044007
 Fermi energy:        -0.9020694621

 k-point     1 :       0.0000    0.0000    0.0000
  band No.  band energies     occupation 
      1     -20.4782      2.00000
      2      -8.5526      2.00000
      3      -3.4730      2.00000
      4      -3.4730      2.00000
      5       2.0275     -0.00000
      6       3.8359      0.00000
      7       4.7307      0.00000
      8       7.6927      0.00000

 k-point     2 :       0.1111    0.0000    0.0000
  band No.  band energies     occupation 
      1     -20.1796      2.00000
      2      -8.2061      2.00000
      3      -4.6320      2.00000
      4      -4.0701      2.00000
      5       2.4092     -0.00000
      6       4.2387      0.00000
      7       5.0744      0.00000
      8       7.7384      0.00000

 k-point     3 :       0.2222    0.0000    0.0000
  band No.  band energies     occupation 
      1     -19.2894      2.00000
      2      -7.4806      2.00000
      3      -6.9659      2.00000
      4      -5.2663      2.00000
      5       3.4701      0.00000
      6       5.4238      0.00000
      7       5.7832      0.00000
      8       7.4752      0.00000

 k-point     4 :       0.3333    0.0000    0.0000
  band No.  band energies     occupation 
      1     -17.8279      2.00000
      2     -10.3329      2.00000
      3      -6.3176      2.00000
      4      -5.5013      2.00000
      5       3.4157      0.00000
      6       6.1215      0.00000
      7       7.2319      0.00000
      8       7.5218      0.00000

 k-point     5 :       0.4444    0.0000    0.0000
  band No.  band energies     occupation 
      1     -15.8693      2.00000
      2     -13.1567      2.00000
      3      -6.8970      2.00000
      4      -3.6433      2.00000
      5       1.1292     -0.00000
      6       6.9881      0.00000
      7       8.6803      0.00000
      8      10.1161      0.00000

 k-point     6 :       0.1111    0.1111    0.0000
  band No.  band energies     occupation 
      1     -19.5852      2.00000
      2      -7.5451      2.00000
      3      -6.2098      2.00000
      4      -5.2654      2.00000
      5       3.1415      0.00000
      6       5.0390      0.00000
      7       5.6473      0.00000
      8       7.9351      0.00000

 k-point     7 :       0.2222    0.1111    0.0000
  band No.  band energies     occupation 
      1     -18.4092      2.00000
      2      -8.8188      2.00000
      3      -6.7055      2.00000
      4      -6.1155      2.00000
      5       3.9866      0.00000
      6       5.7735      0.00000
      7       6.6249      0.00000
      8       8.1656      0.00000

 k-point     8 :       0.3333    0.1111    0.0000
  band No.  band energies     occupation 
      1     -16.6885      2.00000
      2     -11.6519      2.00000
      3      -7.6064      2.00000
      4      -4.2955      2.00000
      5       2.1631     -0.00000
      6       7.5523      0.00000
      7       8.3883      0.00000
      8       8.9324      0.00000

 k-point     9 :       0.4444    0.1111    0.0000
  band No.  band energies     occupation 
      1     -14.8867      2.00000
      2     -13.8681      2.00000
      3      -7.9138      2.00000
      4      -2.9457      2.00000
      5       0.5571     -0.00000
      6       8.2423      0.00000
      7      10.3459      0.00000
      8      10.6984      0.00000

 k-point    10 :       0.2222    0.2222    0.0000
  band No.  band energies     occupation 
      1     -16.9715      2.00000
      2     -10.3626      2.00000
      3      -8.7959      2.00000
      4      -4.5428      2.00000
      5       2.7276     -0.00000
      6       7.2137      0.00000
      7       8.4538      0.00000
      8       9.9432      0.00000

 k-point    11 :       0.3333    0.2222    0.0000
  band No.  band energies     occupation 
      1     -15.0680      2.00000
      2     -12.5402      2.00000
      3      -9.8282      2.00000
      4      -2.6684      2.00000
      5       0.7152     -0.00000
      6       9.7693      0.00000
      7      10.0437      0.00000
      8      11.2324      0.00000

 k-point    12 :       0.3333    0.3333    0.0000
  band No.  band energies     occupation 
      1     -13.3562      2.00000
      2     -13.3562      2.00000
      3     -11.3107      2.00000
      4      -0.9021      1.00002
      5      -0.9021      0.99998
      6       9.4333      0.00000
      7      12.4625      0.00000
      8      12.4625      0.00000


--------------------------------------------------------------------------------------------------------


 soft charge-density along one line, spin component           1
         0         1         2         3         4         5         6         7         8         9
 total charge-density along one line

 pseudopotential strength for first ion, spin component:           1
 19.331  22.752   0.000  -0.003  -0.000   0.000  -0.005  -0.000
 22.752  26.782   0.000  -0.003  -0.000   0.000  -0.006  -0.000
  0.000   0.000  -2.614  -0.000   0.000  -3.151  -0.000   0.000
 -0.003  -0.003  -0.000  -2.553  -0.000  -0.000  -3.068  -0.000
 -0.000  -0.000   0.000  -0.000  -2.614   0.000  -0.000  -3.151
  0.000   0.000  -3.151  -0.000   0.000  -3.716  -0.000   0.000
 -0.005  -0.006  -0.000  -3.068  -0.000  -0.000  -3.605  -0.000
 -0.000  -0.000   0.000  -0.000  -3.151   0.000  -0.000  -3.716
 total augmentation occupancy for first ion, spin component:           1
 19.801 -12.631   0.000   2.242  -0.000   0.000  -1.327   0.000
-12.631   8.238   0.000  -1.704   0.000   0.000   0.952   0.000
 -0.000   0.000  12.693  -0.000  -0.000  -6.729   0.000   0.000
  2.242  -1.704   0.000   5.236  -0.000   0.000  -2.356   0.000
  0.000   0.000  -0.000  -0.000  12.693   0.000   0.000  -6.729
  0.000   0.000  -6.729   0.000   0.000   3.613   0.000  -0.000
 -1.327   0.952   0.000  -2.356   0.000   0.000   1.088   0.000
  0.000  -0.000   0.000   0.000  -6.729  -0.000   0.000   3.613


------------------------ aborting loop because EDIFF is reached ----------------------------------------


    CHARGE:  cpu time      0.0039: real time      0.0039
    FORLOC:  cpu time      0.0003: real time      0.0003
    FORNL :  cpu time      0.0149: real time      0.0149
    STRESS:  cpu time      0.0451: real time      0.0451
    FORHAR:  cpu time      0.0018: real time      0.0018
    MIXING:  cpu time      0.0005: real time      0.0005
    OFIELD:  cpu time      0.0000: real time      0.0000

  FORCE on cell =-STRESS in cart. coord.  units (eV):
  Direction    XX          YY          ZZ          XY          YZ          ZX
  --------------------------------------------------------------------------------------
  Alpha Z     3.71251     3.71251     3.71251
  Ewald     653.77912   653.77912  -921.84841     0.00000    -0.00000    -0.00000
  Hartree   638.13631   638.13631  -626.90745     0.00000    -0.00000     0.00000
  E(xc)     -29.23459   -29.23459   -30.35236    -0.00000     0.00000     0.00000
  Local   -1411.22203 -1411.22202  1416.17615     0.00000    -0.00000     0.00000
  n-local    27.63929    28.99064    28.04727    -2.80786    -0.21941    -0.68241
  augment     8.77654     8.77653     7.87124    -0.00001     0.00000     0.00000
  Kinetic   108.16909   110.61576   122.56662     4.98071    -0.42029    -1.43561
  Fock        0.00000     0.00000     0.00000     0.00000     0.00000     0.00000
  -------------------------------------------------------------------------------------
  Total       1.65523     1.65523    -0.73444    -0.00000     0.00000     0.00000
  in kB      51.39086    51.39086   -22.80259    -0.00000     0.00000     0.00000
  external pressure =       26.66 kB  Pullay stress =        0.00 kB


 VOLUME and BASIS-vectors are now :
 -----------------------------------------------------------------------------
  energy-cutoff  :      400.00
  volume of cell :       51.60
      direct lattice vectors                 reciprocal lattice vectors
     2.441046239  0.000000000  0.000000000     0.409660409  0.236517547 -0.000000000
    -1.220523120  2.114008055  0.000000000     0.000000000  0.473035094  0.000000000
     0.000000000  0.000000000 10.000000000     0.000000000 -0.000000000  0.100000000

  length of vectors
     2.441046239  2.441046239 10.000000000     0.473035094  0.473035094  0.100000000


 FORCES acting on ions
    electron-ion (+dipol)            ewald-force                    non-local-force                 convergence-correction
 -----------------------------------------------------------------------------------------------
   -.384E-05 0.121E-04 0.575E+02   0.107E-07 0.538E-08 -.606E+02   0.705E-16 0.292E-16 0.648E+01   0.167E-08 -.968E-09 0.119E-03
   0.384E-05 -.121E-04 -.575E+02   -.107E-07 -.538E-08 0.606E+02   0.129E-16 -.762E-16 -.648E+01   -.921E-09 0.535E-09 0.726E-05
 -----------------------------------------------------------------------------------------------
   -.357E-08 0.774E-11 -.144E-03   0.167E-14 0.142E-14 0.000E+00   0.834E-16 -.470E-16 0.747E-05   0.750E-09 -.432E-09 0.127E-03


 POSITION                                       TOTAL-FORCE (eV/Angst)
 -----------------------------------------------------------------------------------
      0.00000      0.00000      0.00000        -0.000000      0.000000      3.353225
     -0.00000      1.40934      0.20000         0.000000     -0.000000     -3.353225
 -----------------------------------------------------------------------------------
    total drift:                               -0.000000     -0.000000     -0.000010


--------------------------------------------------------------------------------------------------------



  FREE ENERGIE OF THE ION-ELECTRON SYSTEM (eV)
  ---------------------------------------------------
  free  energy   TOTEN  =       -18.03784621 eV

  energy  without entropy=      -18.03506009  energy(sigma->0) =      -18.03691750



--------------------------------------------------------------------------------------------------------


    POTLOK:  cpu time      0.0096: real time      0.0096


--------------------------------------------------------------------------------------------------------




--------------------------------------------------------------------------------------------------------


    WAVPRE:  cpu time      0.0018: real time      0.0018
    FEWALD:  cpu time      0.0002: real time      0.0002
    GENKIN:  cpu time      0.0013: real time      0.0013
    ORTHCH:  cpu time      0.0067: real time      0.0067
     LOOP+:  cpu time      1.3884: real time      1.3884


--------------------------------------- Ionic step        2  -------------------------------------------




--------------------------------------- Iteration      2(   1)  ---------------------------------------


    POTLOK:  cpu time      0.0079: real time      0.0079
    SETDIJ:  cpu time      0.0012: real time      0.0012
     EDDAV:  cpu time      0.0712: real time      0.0712
       DOS:  cpu time      0.0002: real time      0.0002
    CHARGE:  cpu time      0.0040: real time      0.0040
    MIXING:  cpu time      0.0003: real time      0.0003
    --------------------------------------------
      LOOP:  cpu time      0.0848: real time      0.0848

 eigenvalue-minimisations  :   240
 total energy-change (2. order) :-0.2863103E+00  (-0.4217903E+01)
 number of electron       8.0000013 magnetization 
 augmentation part        0.3216157 magnetization 

 Broyden mixing:
  rms(total) = 0.35163E+00    rms(broyden)= 0.35158E+00
  rms(prec ) = 0.38177E+00
  weight for this iteration     100.00

 Free energy of the ion-electron system (eV)
  ---------------------------------------------------
  alpha Z        PSCENC =         3.49482117
  Ewald energy   TEWEN  =       326.76664121
  -Hartree energ DENC   =      -594.80210284
  -exchange      EXHF   =         0.00000000
  -V(xc)+E(xc)   XCENC  =        28.36215402
  PAW double counting   =      3208.48701122    -3210.55766072
  entropy T*S    EENTRO =        -0.00266127
  eigenvalues    EBANDS =       -74.37519559
  atomic energy  EATOM  =       294.30283995
  Solvation  Ediel_sol  =         0.00000000
  ---------------------------------------------------
  free energy    TOTEN  =       -18.32415285 eV

  energy without entropy =      -18.32149158  energy(sigma->0) =      -18.32326576


--------------------------------------------------------------------------------------------------------




--------------------------------------- Iteration      2(   2)  ---------------------------------------


    POTLOK:  cpu time      0.0080: real time      0.0080
    SETDIJ:  cpu time      0.0011: real time      0.0011
     EDDAV:  cpu time      0.0774: real time      0.0774
       DOS:  cpu time      0.0002: real time      0.0002
    CHARGE:  cpu time      0.0038: real time      0.0038
    MIXING:  cpu time      0.0003: real time      0.0003
    --------------------------------------------
      LOOP:  cpu time      0.0908: real time      0.0908

 eigenvalue-minimisations  :   256
 total energy-change (2. order) : 0.5493298E-02  (-0.7301456E-01)
 number of electron       8.0000014 magnetization 
 augmentation part        0.3211670 magnetization 

 Broyden mixing:
  rms(total) = 0.25905E+00    rms(broyden)= 0.25904E+00
  rms(prec ) = 0.27278E+00
  weight for this iteration     100.00

 eigenvalues of (default mixing * dielectric matrix)
  average eigenvalue GAMMA=   0.9374
  0.9374

 Free energy of the ion-electron system (eV)
  ---------------------------------------------------
  alpha Z        PSCENC =         3.49482117
  Ewald energy   TEWEN  =       326.76664121
  -Hartree energ DENC   =      -592.96403787
  -exchange      EXHF   =         0.00000000
  -V(xc)+E(xc)   XCENC  =        28.31242291
  PAW double counting   =      3045.56498815    -3047.62339903
  entropy T*S    EENTRO =        -0.00270454
  eigenvalues    EBANDS =       -76.17023150
  atomic energy  EATOM  =       294.30283995
  Solvation  Ediel_sol  =         0.00000000
  ---------------------------------------------------
  free energy    TOTEN  =       -18.31865955 eV

  energy without entropy =      -18.31595501  energy(sigma->0) =      -18.31775804


--------------------------------------------------------------------------------------------------------




--------------------------------------- Iteration      2(   3)  ---------------------------------------


    POTLOK:  cpu time      0.0079: real time      0.0079
    SETDIJ:  cpu time      0.0011: real time      0.0011
     EDDAV:  cpu time      0.1102: real time      0.1102
       DOS:  cpu time      0.0002: real time      0.0002
    CHARGE:  cpu time      0.0039: real time      0.0039
    MIXING:  cpu time      0.0004: real time      0.0004
    --------------------------------------------
      LOOP:  cpu time      0.1237: real time      0.1237

 eigenvalue-minimisations  :   352
 total energy-change (2. order) : 0.2116365E-01  (-0.3402291E-02)
 number of electron       8.0000013 magnetization 
 augmentation part        0.3221963 magnetization 

 Broyden mixing:
  rms(total) = 0.16940E+00    rms(broyden)= 0.16940E+00
  rms(prec ) = 0.17638E+00
  weight for this iteration     100.00

 eigenvalues of (default mixing * dielectric matrix)
  average eigenvalue GAMMA=   1.7178
  1.1807  2.2550

 Free energy of the ion-electron system (eV)
  ---------------------------------------------------
  alpha Z        PSCENC =         3.49482117
  Ewald energy   TEWEN  =       326.76664121
  -Hartree energ DENC   =      -591.96497725
  -exchange      EXHF   =         0.00000000
  -V(xc)+E(xc)   XCENC  =        28.29547768
  PAW double counting   =      2887.17401550    -2889.22301929
  entropy T*S    EENTRO =        -0.00278490
  eigenvalues    EBANDS =       -77.14050998
  atomic energy  EATOM  =       294.30283995
  Solvation  Ediel_sol  =         0.00000000
  ---------------------------------------------------
  free energy    TOTEN  =       -18.29749590 eV

  energy without entropy =      -18.29471100  energy(sigma->0) =      -18.29656760


--------------------------------------------------------------------------------------------------------




--------------------------------------- Iteration      2(   4)  ---------------------------------------


    POTLOK:  cpu time      0.0081: real time      0.0081
    SETDIJ:  cpu time      0.0012: real time      0.0012
     EDDAV:  cpu time      0.0787: real time      0.0787
       DOS:  cpu time      0.0002: real time      0.0002
    CHARGE:  cpu time      0.0038: real time      0.0039
    MIXING:  cpu time      0.0004: real time      0.0004
    --------------------------------------------
      LOOP:  cpu time      0.0924: real time      0.0924

 eigenvalue-minimisations  :   264
 total energy-change (2. order) : 0.9942716E-02  (-0.1995342E-02)
 number of electron       8.0000013 magnetization 
 augmentation part        0.3231783 magnetization 

 Broyden mixing:
  rms(total) = 0.13322E-01    rms(broyden)= 0.13321E-01
  rms(prec ) = 0.20258E-01
  weight for this iteration     100.00

 eigenvalues of (default mixing * dielectric matrix)
  average eigenvalue GAMMA=   1.4615
  2.3610  1.0862  0.9374

 Free energy of the ion-electron system (eV)
  ---------------------------------------------------
  alpha Z        PSCENC =         3.49482117
  Ewald energy   TEWEN  =       326.76664121
  -Hartree energ DENC   =      -590.48885438
  -exchange      EXHF   =         0.00000000
  -V(xc)+E(xc)   XCENC  =        28.27672302
  PAW double counting   =      2663.33583268    -2665.37360023
  entropy T*S    EENTRO =        -0.00277544
  eigenvalues    EBANDS =       -78.59918117
  atomic energy  EATOM  =       294.30283995
  Solvation  Ediel_sol  =         0.00000000
  ---------------------------------------------------
  free energy    TOTEN  =       -18.28755319 eV

  energy without entropy =      -18.28477775  energy(sigma->0) =      -18.28662804


--------------------------------------------------------------------------------------------------------




--------------------------------------- Iteration      2(   5)  ---------------------------------------


    POTLOK:  cpu time      0.0078: real time      0.0078
    SETDIJ:  cpu time      0.0011: real time      0.0011
     EDDAV:  cpu time      0.0812: real time      0.0812
       DOS:  cpu time      0.0002: real time      0.0002
    CHARGE:  cpu time      0.0038: real time      0.0038
    MIXING:  cpu time      0.0004: real time      0.0004
    --------------------------------------------
      LOOP:  cpu time      0.0945: real time      0.0945

 eigenvalue-minimisations  :   272
 total energy-change (2. order) : 0.1669488E-03  (-0.1846088E-03)
 number of electron       8.0000013 magnetization 
 augmentation part        0.3235468 magnetization 

 Broyden mixing:
  rms(total) = 0.11076E-01    rms(broyden)= 0.11075E-01
  rms(prec ) = 0.15658E-01
  weight for this iteration     100.00

 eigenvalues of (default mixing * dielectric matrix)
  average eigenvalue GAMMA=   1.3950
  2.3639  1.2018  1.2018  0.8124

 Free energy of the ion-electron system (eV)
  ---------------------------------------------------
  alpha Z        PSCENC =         3.49482117
  Ewald energy   TEWEN  =       326.76664121
  -Hartree energ DENC   =      -590.19419191
  -exchange      EXHF   =         0.00000000
  -V(xc)+E(xc)   XCENC  =        28.27194982
  PAW double counting   =      2655.42790864    -2657.46548755
  entropy T*S    EENTRO =        -0.00278598
  eigenvalues    EBANDS =       -78.88908159
  atomic energy  EATOM  =       294.30283995
  Solvation  Ediel_sol  =         0.00000000
  ---------------------------------------------------
  free energy    TOTEN  =       -18.28738624 eV

  energy without entropy =      -18.28460026  energy(sigma->0) =      -18.28645758


--------------------------------------------------------------------------------------------------------




--------------------------------------- Iteration      2(   6)  ---------------------------------------


    POTLOK:  cpu time      0.0078: real time      0.0078
    SETDIJ:  cpu time      0.0012: real time      0.0012
     EDDAV:  cpu time      0.0597: real time      0.0597
       DOS:  cpu time      0.0001: real time      0.0001
    CHARGE:  cpu time      0.0026: real time      0.0026
    MIXING:  cpu time      0.0005: real time      0.0005
    --------------------------------------------
      LOOP:  cpu time      0.0719: real time      0.0719

 eigenvalue-minimisations  :   248
 total energy-change (2. order) : 0.2664723E-04  (-0.2634860E-04)
 number of electron       8.0000013 magnetization 
 augmentation part        0.3236622 magnetization 

 Broyden mixing:
  rms(total) = 0.44519E-02    rms(broyden)= 0.44518E-02
  rms(prec ) = 0.92103E-02
  weight for this iteration     100.00

 eigenvalues of (default mixing * dielectric matrix)
  average eigenvalue GAMMA=   1.5832
  2.4449  2.1515  1.2937  1.1685  0.8575

 Free energy of the ion-electron system (eV)
  ---------------------------------------------------
  alpha Z        PSCENC =         3.49482117
  Ewald energy   TEWEN  =       326.76664121
  -Hartree energ DENC   =      -589.86705410
  -exchange      EXHF   =         0.00000000
  -V(xc)+E(xc)   XCENC  =        28.26636054
  PAW double counting   =      2662.70091304    -2664.73932770
  entropy T*S    EENTRO =        -0.00278610
  eigenvalues    EBANDS =       -79.20976760
  atomic energy  EATOM  =       294.30283995
  Solvation  Ediel_sol  =         0.00000000
  ---------------------------------------------------
  free energy    TOTEN  =       -18.28735959 eV

  energy without entropy =      -18.28457349  energy(sigma->0) =      -18.28643089


--------------------------------------------------------------------------------------------------------




--------------------------------------- Iteration      2(   7)  ---------------------------------------


    POTLOK:  cpu time      0.0078: real time      0.0078
    SETDIJ:  cpu time      0.0012: real time      0.0012
     EDDAV:  cpu time      0.0518: real time      0.0518
       DOS:  cpu time      0.0002: real time      0.0002
    CHARGE:  cpu time      0.0027: real time      0.0027
    MIXING:  cpu time      0.0005: real time      0.0005
    --------------------------------------------
      LOOP:  cpu time      0.0641: real time      0.0641

 eigenvalue-minimisations  :   216
 total energy-change (2. order) :-0.2479791E-04  (-0.2325717E-04)
 number of electron       8.0000013 magnetization 
 augmentation part        0.3237802 magnetization 

 Broyden mixing:
  rms(total) = 0.26661E-02    rms(broyden)= 0.26659E-02
  rms(prec ) = 0.56305E-02
  weight for this iteration     100.00

 eigenvalues of (default mixing * dielectric matrix)
  average eigenvalue GAMMA=   1.7856
  3.2638  2.5173  1.5166  1.5166  0.8653  1.0340

 Free energy of the ion-electron system (eV)
  ---------------------------------------------------
  alpha Z        PSCENC =         3.49482117
  Ewald energy   TEWEN  =       326.76664121
  -Hartree energ DENC   =      -589.43072437
  -exchange      EXHF   =         0.00000000
  -V(xc)+E(xc)   XCENC  =        28.25941856
  PAW double counting   =      2669.63935227    -2671.67871587
  entropy T*S    EENTRO =        -0.00278607
  eigenvalues    EBANDS =       -79.63823124
  atomic energy  EATOM  =       294.30283995
  Solvation  Ediel_sol  =         0.00000000
  ---------------------------------------------------
  free energy    TOTEN  =       -18.28738439 eV

  energy without entropy =      -18.28459832  energy(sigma->0) =      -18.28645570


--------------------------------------------------------------------------------------------------------




--------------------------------------- Iteration      2(   8)  ---------------------------------------


    POTLOK:  cpu time      0.0078: real time      0.0078
    SETDIJ:  cpu time      0.0012: real time      0.0012
     EDDAV:  cpu time      0.0495: real time      0.0496
       DOS:  cpu time      0.0001: real time      0.0001
    CHARGE:  cpu time      0.0026: real time      0.0026
    MIXING:  cpu time      0.0005: real time      0.0005
    --------------------------------------------
      LOOP:  cpu time      0.0618: real time      0.0618

 eigenvalue-minimisations  :   208
 total energy-change (2. order) :-0.3038933E-04  (-0.1593160E-04)
 number of electron       8.0000013 magnetization 
 augmentation part        0.3238733 magnetization 

 Broyden mixing:
  rms(total) = 0.17668E-02    rms(broyden)= 0.17664E-02
  rms(prec ) = 0.24817E-02
  weight for this iteration     100.00

 eigenvalues of (default mixing * dielectric matrix)
  average eigenvalue GAMMA=   1.6667
  3.0655  2.4436  1.5558  1.5558  0.8633  1.1034  1.0798

 Free energy of the ion-electron system (eV)
  ---------------------------------------------------
  alpha Z        PSCENC =         3.49482117
  Ewald energy   TEWEN  =       326.76664121
  -Hartree energ DENC   =      -588.97153631
  -exchange      EXHF   =         0.00000000
  -V(xc)+E(xc)   XCENC  =        28.25316839
  PAW double counting   =      2670.85850807    -2672.89833438
  entropy T*S    EENTRO =        -0.00278607
  eigenvalues    EBANDS =       -80.09073681
  atomic energy  EATOM  =       294.30283995
  Solvation  Ediel_sol  =         0.00000000
  ---------------------------------------------------
  free energy    TOTEN  =       -18.28741478 eV

  energy without entropy =      -18.28462871  energy(sigma->0) =      -18.28648609


--------------------------------------------------------------------------------------------------------




--------------------------------------- Iteration      2(   9)  ---------------------------------------


    POTLOK:  cpu time      0.0077: real time      0.0077
    SETDIJ:  cpu time      0.0012: real time      0.0012
     EDDAV:  cpu time      0.0720: real time      0.0720
       DOS:  cpu time      0.0001: real time      0.0001
    --------------------------------------------
[...]
  Direction    XX          YY          ZZ          XY          YZ          ZX
  --------------------------------------------------------------------------------------
  Alpha Z     3.69675     3.69675     3.69675
  Ewald     624.07051   624.07051  -892.23977     0.00000     0.00000     0.00000
  Hartree   607.46911   607.46911  -595.99823     0.00000     0.00000     0.00000
  E(xc)     -29.13233   -29.13233   -30.28917    -0.00000     0.00000     0.00000
  Local   -1350.07044 -1350.07043  1354.50681     0.00001     0.00000     0.00000
  n-local    27.11916    28.33353    27.62119    -2.56911     0.00219     0.00694
  augment     8.86595     8.86594     8.19034    -0.00001     0.00000     0.00000
  Kinetic   106.18478   108.48534   124.43910     4.69504     0.00415     0.01449
  Fock        0.00000     0.00000     0.00000     0.00000     0.00000     0.00000
  -------------------------------------------------------------------------------------
  Total      -0.03904    -0.03904    -0.07298     0.00000     0.00000    -0.00000
  in kB      -1.20705    -1.20705    -2.25623     0.00000     0.00000    -0.00000
  external pressure =       -1.56 kB  Pullay stress =        0.00 kB


 VOLUME and BASIS-vectors are now :
 -----------------------------------------------------------------------------
  energy-cutoff  :      400.00
  volume of cell :       51.82
      direct lattice vectors                 reciprocal lattice vectors
     2.472466059 -0.000000000  0.000000000     0.404454490  0.233511909 -0.000000000
    -1.236233029  2.141218417 -0.000000000     0.000000000  0.467023818 -0.000000000
     0.000000000  0.000000000  9.789010603    -0.000000000  0.000000000  0.102155370

  length of vectors
     2.472466059  2.472466059  9.789010603     0.467023818  0.467023818  0.102155370


 FORCES acting on ions
    electron-ion (+dipol)            ewald-force                    non-local-force                 convergence-correction
 -----------------------------------------------------------------------------------------------
   -.106E-04 0.595E-05 -.521E+00   0.112E-07 0.566E-08 0.556E+00   -.155E-16 -.205E-15 -.642E-01   -.635E-08 0.368E-08 -.233E-02
   0.106E-04 -.595E-05 0.526E+00   -.112E-07 -.566E-08 -.556E+00   -.260E-15 0.113E-15 0.661E-01   -.163E-07 0.940E-08 -.286E-02
 -----------------------------------------------------------------------------------------------
   0.156E-08 0.880E-08 0.528E-02   0.883E-15 0.739E-15 0.000E+00   -.275E-15 -.919E-16 0.198E-02   -.226E-07 0.131E-07 -.519E-02


 POSITION                                       TOTAL-FORCE (eV/Angst)
 -----------------------------------------------------------------------------------
      0.00000      0.00000      0.00000        -0.000000     -0.000000     -0.032290
     -0.00000      1.42748      9.78714         0.000000      0.000000      0.032290
 -----------------------------------------------------------------------------------
    total drift:                               -0.000000      0.000000      0.002074


--------------------------------------------------------------------------------------------------------



  FREE ENERGIE OF THE ION-ELECTRON SYSTEM (eV)
  ---------------------------------------------------
  free  energy   TOTEN  =       -18.39396249 eV

  energy  without entropy=      -18.39117636  energy(sigma->0) =      -18.39303378

 d Force = 0.7415655E-05[-0.129E-03, 0.144E-03]  d Energy = 0.1334763E-03-0.126E-03
 d Force =-0.1547662E-03[ 0.222E-02,-0.253E-02]  d Ewald  = 0.2601053E+01-0.260E+01


--------------------------------------------------------------------------------------------------------


    POTLOK:  cpu time      0.0090: real time      0.0090


--------------------------------------------------------------------------------------------------------


 Conjugate gradient step on ions:
 trial-energy change:   -0.000133  1 .order   -0.000156   -0.000395    0.000084
  (g-gl).g = 0.728E-02      g.g   = 0.456E-03  gl.gl    = 0.358E+00
 g(Force)  = 0.625E-04   g(Stress)= 0.393E-03 ortho     = 0.312E-04
 gamma     =   0.02031
 trial     =   0.86550
 opt step  =   0.71395  (harmonic =   0.71395) maximal distance =0.00000000
 next E    =   -18.393992   (d E  =  -0.00016)


--------------------------------------------------------------------------------------------------------


    WAVPRE:  cpu time      0.0008: real time      0.0008
    FEWALD:  cpu time      0.0001: real time      0.0001
    GENKIN:  cpu time      0.0006: real time      0.0006
    ORTHCH:  cpu time      0.0075: real time      0.0075
     LOOP+:  cpu time      0.4411: real time      0.4411


--------------------------------------- Ionic step       11  -------------------------------------------




--------------------------------------- Iteration     11(   1)  ---------------------------------------


    POTLOK:  cpu time      0.0077: real time      0.0077
    SETDIJ:  cpu time      0.0012: real time      0.0012
     EDDAV:  cpu time      0.0462: real time      0.0462
       DOS:  cpu time      0.0001: real time      0.0001
    CHARGE:  cpu time      0.0026: real time      0.0026
    MIXING:  cpu time      0.0004: real time      0.0004
    --------------------------------------------
      LOOP:  cpu time      0.0582: real time      0.0582

 eigenvalue-minimisations  :   192
 total energy-change (2. order) :-0.2325561E-04  (-0.1096694E-03)
 number of electron       7.9999993 magnetization 
 augmentation part        0.3413658 magnetization 

 Broyden mixing:
  rms(total) = 0.17763E-02    rms(broyden)= 0.17761E-02
  rms(prec ) = 0.21961E-02
  weight for this iteration     100.00

 Free energy of the ion-electron system (eV)
  ---------------------------------------------------
  alpha Z        PSCENC =         3.69690137
  Ewald energy   TEWEN  =       356.35642140
  -Hartree energ DENC   =      -619.37397943
  -exchange      EXHF   =         0.00000000
  -V(xc)+E(xc)   XCENC  =        28.73337175
  PAW double counting   =      3151.46077869    -3153.53931615
  entropy T*S    EENTRO =        -0.00278612
  eigenvalues    EBANDS =       -80.02821442
  atomic energy  EATOM  =       294.30283995
  Solvation  Ediel_sol  =         0.00000000
  ---------------------------------------------------
  free energy    TOTEN  =       -18.39398297 eV

  energy without entropy =      -18.39119685  energy(sigma->0) =      -18.39305426


--------------------------------------------------------------------------------------------------------




--------------------------------------- Iteration     11(   2)  ---------------------------------------


    POTLOK:  cpu time      0.0077: real time      0.0077
    SETDIJ:  cpu time      0.0012: real time      0.0012
     EDDAV:  cpu time      0.0604: real time      0.0604
       DOS:  cpu time      0.0002: real time      0.0002
    --------------------------------------------
      LOOP:  cpu time      0.0694: real time      0.0694

 eigenvalue-minimisations  :   256
 total energy-change (2. order) :-0.9340665E-06  (-0.2668688E-05)
 number of electron       7.9999993 magnetization 
 augmentation part        0.3413658 magnetization 

 Free energy of the ion-electron system (eV)
  ---------------------------------------------------
  alpha Z        PSCENC =         3.69690137
  Ewald energy   TEWEN  =       356.35642140
  -Hartree energ DENC   =      -619.39512431
  -exchange      EXHF   =         0.00000000
  -V(xc)+E(xc)   XCENC  =        28.73433178
  PAW double counting   =      3152.05476599    -3154.13348319
  entropy T*S    EENTRO =        -0.00278612
  eigenvalues    EBANDS =       -80.00785076
  atomic energy  EATOM  =       294.30283995
  Solvation  Ediel_sol  =         0.00000000
  ---------------------------------------------------
  free energy    TOTEN  =       -18.39398390 eV

  energy without entropy =      -18.39119778  energy(sigma->0) =      -18.39305520


--------------------------------------------------------------------------------------------------------




 average (electrostatic) potential at core
  the test charge radii are     0.8471
  (the norm of the test charge is              1.0000)
       1 -81.0851       2 -81.0848



 E-fermi :  -0.8856     XC(G=0):  -4.2656     alpha+bet : -4.2083

 val. band max:       -0.8856221246   @ k =   0.3333   0.3333   0.0000
 cond. band min:      -0.8855375365   @ k =   0.3333   0.3333   0.0000
 fundamental gap:      0.0000845881
 Fermi energy:        -0.8855798305

 k-point     1 :       0.0000    0.0000    0.0000
  band No.  band energies     occupation 
      1     -20.3494      2.00000
      2      -8.4568      2.00000
      3      -3.9171      2.00000
      4      -3.9171      2.00000
      5       2.3168     -0.00000
      6       3.9581      0.00000
      7       5.3557      0.00000
      8       7.3840      0.00000

 k-point     2 :       0.1111    0.0000    0.0000
  band No.  band energies     occupation 
      1     -20.0594      2.00000
      2      -8.1109      2.00000
      3      -5.0333      2.00000
      4      -4.4881      2.00000
      5       2.7116     -0.00000
      6       4.3483      0.00000
      7       5.7435      0.00000
      8       7.4718      0.00000

 k-point     3 :       0.2222    0.0000    0.0000
  band No.  band energies     occupation 
      1     -19.1953      2.00000
      2      -7.5788      2.00000
      3      -7.0916      2.00000
      4      -5.6391      2.00000
      5       3.8948      0.00000
      6       5.4999      0.00000
      7       6.8647      0.00000
      8       7.0614      0.00000

 k-point     4 :       0.3333    0.0000    0.0000
  band No.  band energies     occupation 
      1     -17.7780      2.00000
      2     -10.4997      2.00000
      3      -6.6557      2.00000
      4      -5.4795      2.00000
      5       3.9940      0.00000
      6       5.8522      0.00000
      7       6.7865      0.00000
      8       7.4744      0.00000

 k-point     5 :       0.4444    0.0000    0.0000
  band No.  band energies     occupation 
      1     -15.8860      2.00000
      2     -13.2293      2.00000
      3      -7.2171      2.00000
      4      -3.6532      2.00000
      5       1.3273     -0.00000
      6       6.4853      0.00000
      7       8.6002      0.00000
      8      10.1008      0.00000

 k-point     6 :       0.1111    0.1111    0.0000
  band No.  band energies     occupation 
      1     -19.4824      2.00000
      2      -7.4276      2.00000
      3      -6.5898      2.00000
      4      -5.6280      2.00000
      5       3.5013      0.00000
      6       5.1246      0.00000
      7       6.5222      0.00000
      8       7.8266      0.00000

 k-point     7 :       0.2222    0.1111    0.0000
  band No.  band energies     occupation 
      1     -18.3414      2.00000
      2      -9.0335      2.00000
      3      -7.0065      2.00000
      4      -6.1021      2.00000
      5       5.0765      0.00000
      6       5.2320      0.00000
      7       6.6739      0.00000
      8       7.9872      0.00000

 k-point     8 :       0.3333    0.1111    0.0000
  band No.  band energies     occupation 
      1     -16.6750      2.00000
      2     -11.7810      2.00000
      3      -7.8843      2.00000
      4      -4.2903      2.00000
      5       2.4170     -0.00000
      6       7.4046      0.00000
      7       7.8560      0.00000
      8       8.9100      0.00000

 k-point     9 :       0.4444    0.1111    0.0000
  band No.  band energies     occupation 
      1     -14.9537      2.00000
      2     -13.9020      2.00000
      3      -8.1832      2.00000
      4      -2.9683      2.00000
      5       0.7136     -0.00000
      6       7.6797      0.00000
      7      10.4096      0.00000
      8      10.5732      0.00000

 k-point    10 :       0.2222    0.2222    0.0000
  band No.  band energies     occupation 
      1     -16.9485      2.00000
      2     -10.5506      2.00000
      3      -9.0063      2.00000
      4      -4.5333      2.00000
      5       3.0324     -0.00000
      6       7.0339      0.00000
      7       8.4450      0.00000
      8       9.9841      0.00000

 k-point    11 :       0.3333    0.2222    0.0000
  band No.  band energies     occupation 
      1     -15.1110      2.00000
      2     -12.6508      2.00000
      3     -10.0031      2.00000
      4      -2.6743      2.00000
      5       0.8157     -0.00000
      6       9.7020      0.00000
      7      10.1061      0.00000
      8      10.5431      0.00000

 k-point    12 :       0.3333    0.3333    0.0000
  band No.  band energies     occupation 
      1     -13.4644      2.00000
      2     -13.4644      2.00000
      3     -11.3982      2.00000
      4      -0.8856      1.00036
      5      -0.8855      0.99964
      6       9.7537      0.00000
      7      11.9369      0.00000
      8      11.9369      0.00000


--------------------------------------------------------------------------------------------------------


 soft charge-density along one line, spin component           1
         0         1         2         3         4         5         6         7         8         9
 total charge-density along one line

 pseudopotential strength for first ion, spin component:           1
 19.350  22.775   0.000   0.000  -0.000   0.000   0.000  -0.000
 22.775  26.808   0.000   0.000  -0.000   0.000   0.000  -0.000
  0.000   0.000  -2.630  -0.000   0.000  -3.173  -0.000   0.000
  0.000   0.000  -0.000  -2.564  -0.000  -0.000  -3.083  -0.000
 -0.000  -0.000   0.000  -0.000  -2.630   0.000  -0.000  -3.173
  0.000   0.000  -3.173  -0.000   0.000  -3.746  -0.000   0.000
  0.000   0.000  -0.000  -3.083  -0.000  -0.000  -3.625  -0.000
 -0.000  -0.000   0.000  -0.000  -3.173   0.000  -0.000  -3.746
 total augmentation occupancy for first ion, spin component:           1
 19.537 -12.389   0.000  -0.010   0.000  -0.000   0.006  -0.000
-12.389   8.001  -0.000   0.007  -0.000   0.000  -0.004   0.000
  0.000   0.000  12.689   0.000  -0.000  -6.731  -0.000   0.000
 -0.010   0.007   0.000   4.988   0.000  -0.000  -2.179  -0.000
  0.000  -0.000  -0.000   0.000  12.689   0.000  -0.000  -6.731
  0.000   0.000  -6.731  -0.000   0.000   3.611   0.000  -0.000
  0.006  -0.004  -0.000  -2.179  -0.000   0.000   0.974   0.000
  0.000   0.000   0.000  -0.000  -6.731  -0.000   0.000   3.611


------------------------ aborting loop because EDIFF is reached ----------------------------------------


    CHARGE:  cpu time      0.0027: real time      0.0027
    FORLOC:  cpu time      0.0003: real time      0.0003
    FORNL :  cpu time      0.0144: real time      0.0144
    STRESS:  cpu time      0.0439: real time      0.0439
    FORHAR:  cpu time      0.0018: real time      0.0018
    MIXING:  cpu time      0.0003: real time      0.0003
    OFIELD:  cpu time      0.0000: real time      0.0000

  FORCE on cell =-STRESS in cart. coord.  units (eV):
  Direction    XX          YY          ZZ          XY          YZ          ZX
  --------------------------------------------------------------------------------------
  Alpha Z     3.69690     3.69690     3.69690
  Ewald     624.56933   624.56933  -892.78227     0.00000     0.00000     0.00000
  Hartree   607.95214   607.95214  -596.48361     0.00000     0.00000     0.00000
  E(xc)     -29.13378   -29.13378   -30.29028    -0.00000     0.00000     0.00000
  Local   -1351.06006 -1351.06005  1355.53373     0.00001     0.00000     0.00000
  n-local    27.12160    28.33730    27.62202    -2.57173     0.00138     0.00435
  augment     8.86963     8.86963     8.19477    -0.00001     0.00000     0.00000
  Kinetic   106.20704   108.50625   124.47075     4.69931     0.00257     0.00884
  Fock        0.00000     0.00000     0.00000     0.00000     0.00000     0.00000
  -------------------------------------------------------------------------------------
  Total      -0.01975    -0.01975    -0.03799     0.00000     0.00000    -0.00000
  in kB      -0.61048    -0.61048    -1.17456     0.00000     0.00000    -0.00000
  external pressure =       -0.80 kB  Pullay stress =        0.00 kB


 VOLUME and BASIS-vectors are now :
 -----------------------------------------------------------------------------
  energy-cutoff  :      400.00
  volume of cell :       51.82
      direct lattice vectors                 reciprocal lattice vectors
     2.472065213 -0.000000000  0.000000000     0.404520073  0.233549773 -0.000000000
    -1.236032607  2.140871274 -0.000000000     0.000000000  0.467099546 -0.000000000
     0.000000000  0.000000000  9.791779146    -0.000000000  0.000000000  0.102126486

  length of vectors
     2.472065213  2.472065213  9.791779146     0.467099546  0.467099546  0.102126486


 FORCES acting on ions
    electron-ion (+dipol)            ewald-force                    non-local-force                 convergence-correction
 -----------------------------------------------------------------------------------------------
   -.105E-04 0.597E-05 -.319E+00   0.112E-07 0.566E-08 0.348E+00   0.161E-15 -.146E-15 -.406E-01   0.373E-07 -.214E-07 -.832E-02
   0.105E-04 -.597E-05 0.341E+00   -.112E-07 -.566E-08 -.348E+00   0.863E-16 -.759E-17 0.382E-01   -.303E-07 0.177E-07 -.106E-01
 -----------------------------------------------------------------------------------------------
   -.431E-08 -.170E-08 0.229E-01   -.141E-14 0.601E-15 0.000E+00   0.247E-15 -.154E-15 -.238E-02   0.695E-08 -.366E-08 -.189E-01


 POSITION                                       TOTAL-FORCE (eV/Angst)
 -----------------------------------------------------------------------------------
      0.00000      0.00000      0.00000        -0.000000     -0.000000     -0.019886
     -0.00000      1.42725      9.79061         0.000000      0.000000      0.019886
 -----------------------------------------------------------------------------------
    total drift:                                0.000000     -0.000000      0.001546


--------------------------------------------------------------------------------------------------------



  FREE ENERGIE OF THE ION-ELECTRON SYSTEM (eV)
  ---------------------------------------------------
  free  energy   TOTEN  =       -18.39398390 eV

  energy  without entropy=      -18.39119778  energy(sigma->0) =      -18.39305520

 d Force = 0.1828358E-04[ 0.139E-04, 0.226E-04]  d Energy = 0.2141830E-04-0.313E-05
 d Force =-0.3169023E-03[-0.244E-03,-0.390E-03]  d Ewald  =-0.4551531E+00 0.455E+00


--------------------------------------------------------------------------------------------------------


    POTLOK:  cpu time      0.0091: real time      0.0091


--------------------------------------------------------------------------------------------------------




--------------------------------------------------------------------------------------------------------


  
 reached required accuracy - stopping structural energy minimisation
     LOOP+:  cpu time      0.2024: real time      0.2024
    4ORBIT:  cpu time      0.0000: real time      0.0000

 total amount of memory used by VASP MPI-rank0    32087. kBytes
=======================================================================

   base      :      30000. kBytes
   nonlr-proj:        203. kBytes
   fftplans  :        515. kBytes
   grid      :        990. kBytes
   one-center:          6. kBytes
   wavefun   :        373. kBytes

  
  
 General timing and accounting informations for this job:
 ========================================================
  
                  Total CPU time used (sec):        6.325
                            User time (sec):        6.229
                          System time (sec):        0.096
                         Elapsed time (sec):        6.331
  
                   Maximum memory used (kb):       54984.
                   Average memory used (kb):          N/A
  
                          Minor page faults:         3861
                          Major page faults:            2
                 Voluntary context switches:           76
