<?xml version="1.0" encoding="ISO-8859-1"?>
<modeling>
 <generator>
  <i name="program" type="string">vasp </i>
  <i name="version" type="string">6.4.3  </i>
  <i name="subversion" type="string">19Mar24 (build Jun 11 2024 09:57:22) complex                          parallel </i>
  <i name="platform" type="string">LinuxGNU </i>
  <i name="date" type="string">2024 07 24 </i>
  <i name="time" type="string">22:47:33 </i>
 </generator>
 <incar>
  <i type="int" name="IBRION">     2</i>
  <i name="EDIFF">      0.00001000</i>
  <i name="EDIFFG">     -0.02000000</i>
  <i type="int" name="NSW">   100</i>
  <i type="int" name="ISIF">     3</i>
  <i name="ENMAX">    400.00000000</i>
  <i type="string" name="LREAL">Auto</i>
  <i type="logical" name="LWAVE"> F  </i>
  <i type="logical" name="LCHARG"> F  </i>
 </incar>
 <primitive_cell>
  <structure name="primitive_cell" >
   <crystal>
    <varray name="basis" >
     <v>       2.44104624       0.00000000       0.00000000 </v>
     <v>      -1.22052312       2.11400806       0.00000000 </v>
     <v>       0.00000000       0.00000000      10.00000000 </v>
    </varray>
    <i name="volume">     51.60391413 </i>
    <varray name="rec_basis" >
     <v>       0.40966041       0.23651755      -0.00000000 </v>
     <v>       0.00000000       0.47303509       0.00000000 </v>
     <v>       0.00000000      -0.00000000       0.10000000 </v>
    </varray>
   </crystal>
   <varray name="positions" >
    <v>       0.00000000       0.00000000       0.00000000 </v>
    <v>       0.33333333       0.66666667       0.02000000 </v>
   </varray>
  </structure>
  <varray name="primitive_index" >
   <v type="int" >        1 </v>
   <v type="int" >        2 </v>
  </varray>
 </primitive_cell>
 <kpoints>
  <generation param="Monkhorst-Pack">
   <v type="int" name="divisions">       9        9        1 </v>
   <v name="usershift">      0.00000000       0.00000000       0.00000000 </v>
   <v name="genvec1">      0.11111111       0.00000000       0.00000000 </v>
   <v name="genvec2">      0.00000000       0.11111111       0.00000000 </v>
   <v name="genvec3">      0.00000000       0.00000000       1.00000000 </v>
   <v name="shift">      0.00000000       0.00000000       0.00000000 </v>
  </generation>
  <varray name="kpointlist" >
   <v>       0.00000000       0.00000000       0.00000000 </v>
   <v>       0.11111111       0.00000000       0.00000000 </v>
   <v>       0.22222222       0.00000000       0.00000000 </v>
   <v>       0.33333333       0.00000000       0.00000000 </v>
   <v>       0.44444444       0.00000000       0.00000000 </v>
   <v>       0.11111111       0.11111111       0.00000000 </v>
   <v>       0.22222222       0.11111111       0.00000000 </v>
   <v>       0.33333333       0.11111111       0.00000000 </v>
   <v>       0.44444444       0.11111111       0.00000000 </v>
   <v>       0.22222222       0.22222222       0.00000000 </v>
   <v>       0.33333333       0.22222222       0.00000000 </v>
   <v>       0.33333333       0.33333333       0.00000000 </v>
  </varray>
  <varray name="weights" >
   <v>       0.01234568 </v>
   <v>       0.07407407 </v>
   <v>       0.07407407 </v>
   <v>       0.07407407 </v>
   <v>       0.07407407 </v>
   <v>       0.07407407 </v>
   <v>       0.14814815 </v>
   <v>       0.14814815 </v>
   <v>       0.07407407 </v>
   <v>       0.07407407 </v>
   <v>       0.14814815 </v>
   <v>       0.02469136 </v>
  </varray>
 </kpoints>
 <parameters>
  <separator name="general" >
   <i type="string" name="SYSTEM">unknown system</i>
   <i type="logical" name="LCOMPAT"> F  </i>
  </separator>
  <separator name="electronic" >
   <i type="string" name="PREC">normal</i>
   <i name="ENMAX">    400.00000000</i>
   <i name="ENAUG">    439.24300000</i>
   <i name="EDIFF">      0.00001000</i>
   <i type="int" name="IALGO">    38</i>
   <i type="int" name="IWAVPR">    11</i>
   <i type="int" name="NBANDS">     8</i>
   <i type="int" name="NBANDSLOW">    -1</i>
   <i type="int" name="NBANDSHIGH">    -1</i>
   <i name="NELECT">      8.00000000</i>
   <i type="int" name="TURBO">     0</i>
   <i type="int" name="IRESTART">     0</i>
   <i type="int" name="NREBOOT">     0</i>
   <i type="int" name="NMIN">     0</i>
   <i name="EREF">      0.00000000</i>
   <separator name="electronic smearing" >
    <i type="int" name="ISMEAR">     1</i>
    <i name="SIGMA">      0.20000000</i>
    <i name="KSPACING">      0.50000000</i>
    <i type="logical" name="KGAMMA"> T  </i>
    <i type="logical" name="KBLOWUP"> T  </i>
   </separator>
   <separator name="electronic projectors" >
    <i type="logical" name="LREAL"> T  </i>
    <v name="ROPT">     -0.00050000</v>
    <i type="int" name="LMAXPAW">  -100</i>
    <i type="int" name="LMAXMIX">     2</i>
    <i type="logical" name="NLSPLINE"> F  </i>
   </separator>
   <separator name="electronic startup" >
    <i type="int" name="ISTART">     0</i>
    <i type="int" name="ICHARG">     2</i>
    <i type="int" name="INIWAV">     1</i>
   </separator>
   <separator name="electronic spin" >
    <i type="int" name="ISPIN">     1</i>
    <i type="logical" name="LNONCOLLINEAR"> F  </i>
    <v name="MAGMOM">      1.00000000      1.00000000</v>
    <i name="NUPDOWN">     -1.00000000</i>
    <i type="logical" name="LSORBIT"> F  </i>
    <v name="SAXIS">      0.00000000      0.00000000      1.00000000</v>
    <i type="logical" name="LSPIRAL"> F  </i>
    <v name="QSPIRAL">      0.00000000      0.00000000      0.00000000</v>
    <i type="logical" name="LZEROZ"> F  </i>
   </separator>
   <separator name="electronic exchange-correlation" >
    <i type="logical" name="LASPH"> F  </i>
   </separator>
   <separator name="electronic convergence" >
    <i type="int" name="NELM">    60</i>
    <i type="int" name="NELMDL">    -5</i>
    <i type="int" name="NELMIN">     2</i>
    <i name="ENINI">    400.00000000</i>
    <separator name="electronic convergence detail" >
     <i type="logical" name="LDIAG"> T  </i>
     <i type="logical" name="LSUBROT"> F  </i>
     <i name="WEIMIN">      0.00100000</i>
     <i name="EBREAK">      0.00000031</i>
     <i name="DEPER">      0.30000000</i>
     <i type="int" name="NRMM">     4</i>
     <i name="TIME">      0.40000000</i>
    </separator>
   </separator>
   <separator name="electronic mixer" >
    <i name="AMIX">      0.40000000</i>
    <i name="BMIX">      1.00000000</i>
    <i name="AMIN">      0.10000000</i>
    <i name="AMIX_MAG">      1.60000000</i>
    <i name="BMIX_MAG">      1.00000000</i>
    <separator name="electronic mixer details" >
     <i type="int" name="IMIX">     4</i>
     <i type="logical" name="MIXFIRST"> F  </i>
     <i type="int" name="MAXMIX">   -45</i>
     <i name="WC">    100.00000000</i>
     <i type="int" name="INIMIX">     1</i>
     <i type="int" name="MIXPRE">     1</i>
     <i type="int" name="MREMOVE">     5</i>
    </separator>
   </separator>
   <separator name="electronic dipolcorrection" >
    <i type="logical" name="LDIPOL"> F  </i>
    <i type="logical" name="LMONO"> F  </i>
    <i type="int" name="IDIPOL">     0</i>
    <i name="EPSILON">      1.00000000</i>
    <v name="DIPOL">   -100.00000000   -100.00000000   -100.00000000</v>
    <i name="EFIELD">      0.00000000</i>
    <i type="logical" name="LVACPOTAV"> F  </i>
   </separator>
  </separator>
  <separator name="grids" >
   <i type="int" name="NGX">    12</i>
   <i type="int" name="NGY">    12</i>
   <i type="int" name="NGZ">    50</i>
   <i type="int" name="NGXF">    24</i>
   <i type="int" name="NGYF">    24</i>
   <i type="int" name="NGZF">   100</i>
   <i type="logical" name="ADDGRID"> F  </i>
  </separator>
  <separator name="ionic" >
   <i type="int" name="NSW">   100</i>
   <i type="int" name="IBRION">     2</i>
   <i type="int" name="MDALGO">     0</i>
   <i type="int" name="ISIF">     3</i>
   <i name="PSTRESS">      0.00000000</i>
   <i name="EDIFFG">     -0.02000000</i>
   <i type="int" name="NFREE">     1</i>
   <i name="POTIM">      0.50000000</i>
   <i name="SMASS">     -3.00000000</i>
   <i name="SCALEE">      1.00000000</i>
  </separator>
  <separator name="ionic md" >
   <i name="TEBEG">      0.00010000</i>
   <i name="TEEND">      0.00010000</i>
   <i type="int" name="NBLOCK">     1</i>
   <i type="int" name="KBLOCK">   100</i>
   <i type="int" name="NPACO">   256</i>
   <i name="APACO">     10.00000000</i>
  </separator>
  <separator name="symmetry" >
   <i type="int" name="ISYM">     2</i>
   <i name="SYMPREC">      0.00001000</i>
  </separator>
  <separator name="dos" >
   <i type="int" name="LORBIT">     0</i>
   <v name="RWIGS">     -1.00000000</v>
   <i type="int" name="NEDOS">   301</i>
   <i name="EMIN">     10.00000000</i>
   <i name="EMAX">    -10.00000000</i>
   <i name="EFERMI">      0.00000000</i>
  </separator>
  <separator name="writing" >
   <i type="int" name="NWRITE">     2</i>
   <i type="logical" name="LWAVE"> F  </i>
   <i type="logical" name="LDOWNSAMPLE"> F  </i>
   <i type="logical" name="LCHARG"> F  </i>
   <i type="logical" name="LPARD"> F  </i>
   <i type="logical" name="LVTOT"> F  </i>
   <i type="logical" name="LVHAR"> F  </i>
   <i type="logical" name="LELF"> F  </i>
   <i type="logical" name="LOPTICS"> F  </i>
   <v name="STM">      0.00000000      0.00000000      0.00000000      0.00000000      0.00000000      0.00000000      0.00000000</v>
  </separator>
  <separator name="performance" >
   <i type="int" name="NPAR">     4</i>
   <i type="int" name="NSIM">     4</i>
   <i type="int" name="NBLK">    -1</i>
   <i type="logical" name="LPLANE"> T  </i>
   <i type="logical" name="LSCALAPACK"> T  </i>
   <i type="logical" name="LSCAAWARE"> F  </i>
   <i type="logical" name="LSCALU"> F  </i>
   <i type="logical" name="LASYNC"> F  </i>
   <i type="logical" name="LORBITALREAL"> F  </i>
  </separator>
  <separator name="miscellaneous" >
   <i type="int" name="IDIOT">     3</i>
   <i type="int" name="PHON_NSTRUCT">    -1</i>
   <i type="logical" name="LMUSIC"> F  </i>
   <v name="POMASS">     12.01100000</v>
   <v name="DARWINR">      0.00000000</v>
   <v name="DARWINV">      1.00000000</v>
   <i type="logical" name="LCORR"> T  </i>
  </separator>
  <i type="logical" name="GGA_COMPAT"> T  </i>
  <i type="logical" name="LBERRY"> F  </i>
  <i type="int" name="ICORELEVEL">     0</i>
  <i type="logical" name="LDAU"> F  </i>
  <i type="int" name="I_CONSTRAINED_M">     0</i>
  <separator name="electronic exchange-correlation" >
   <i type="string" name="GGA    ">PE</i>
   <i type="string" name="XC_C">1</i>
   <i type="int" name="VOSKOWN">     0</i>
   <i type="logical" name="LHFCALC"> F  </i>
   <i type="string" name="PRECFOCK"></i>
   <i type="logical" name="LSYMGRAD"> F  </i>
   <i type="logical" name="LHFONE"> F  </i>
   <i type="logical" name="LRHFCALC"> F  </i>
   <i type="logical" name="LTHOMAS"> F  </i>
   <i type="logical" name="LMODELHF"> F  </i>
   <i type="logical" name="LFOCKACE"> F  </i>
   <i name="ENCUT4O">     -1.00000000</i>
   <i type="int" name="EXXOEP">     0</i>
   <i type="int" name="FOURORBIT">     0</i>
   <i name="AEXX">      0.00000000</i>
   <i name="HFALPHA">      0.00000000</i>
   <i name="MCALPHA">      0.00000000</i>
   <i name="ALDAX">      1.00000000</i>
   <i name="AGGAX">      1.00000000</i>
   <i name="AMGGAX">      1.00000000</i>
   <i name="ALDAC">      1.00000000</i>
   <i name="AGGAC">      1.00000000</i>
   <i name="AMGGAC">      1.00000000</i>
   <i type="int" name="NKREDX">     1</i>
   <i type="int" name="NKREDY">     1</i>
   <i type="int" name="NKREDZ">     1</i>
   <i type="logical" name="SHIFTRED"> F  </i>
   <i type="logical" name="ODDONLY"> F  </i>
   <i type="logical" name="EVENONLY"> F  </i>
   <i type="int" name="LMAXFOCK">     0</i>
   <i type="int" name="NMAXFOCKAE">     0</i>
   <i type="logical" name="LFOCKAEDFT"> F  </i>
   <i name="HFSCREEN">      0.00000000</i>
   <i name="HFSCREENC">      0.00000000</i>
   <i type="int" name="NBANDSGWLOW">     0</i>
  </separator>
  <separator name="vdW DFT" >
   <i type="logical" name="LUSE_VDW"> F  </i>
   <i type="int" name="IVDW_NL">    -1</i>
   <i type="logical" name="LSPIN_VDW"> F  </i>
   <i name="ZAB_VDW">     -0.84910000</i>
   <i name="GAMMA_VDW">      1.39626340</i>
   <i name="ALPHA_VDW">      0.00000000</i>
   <i name="PARAM1">      0.12340000</i>
   <i name="PARAM2">      1.00000000</i>
   <i name="BPARAM">      6.30000000</i>
   <i name="CPARAM">      0.00930000</i>
  </separator>
  <separator name="model GW" >
   <i type="int" name="MODEL_GW">     0</i>
   <i name="MODEL_EPS0">     15.48117424</i>
   <i name="MODEL_ALPHA">      1.00000000</i>
  </separator>
  <separator name="linear response parameters" >
   <i type="logical" name="LEPSILON"> F  </i>
   <i type="logical" name="LRPA"> F  </i>
   <i type="logical" name="LNABLA"> F  </i>
   <i type="logical" name="LVEL"> F  </i>
   <i name="CSHIFT">      0.10000000</i>
   <i name="OMEGAMAX">     -1.00000000</i>
   <i name="DEG_THRESHOLD">      0.00200000</i>
   <i name="RTIME">     -0.10000000</i>
   <i name="WPLASMAI">      0.00000000</i>
   <v name="DFIELD">      0.00000000      0.00000000      0.00000000</v>
   <v name="WPLASMA">      0.00000000      0.00000000      0.00000000      0.00000000      0.00000000      0.00000000      0.00000000      0.00000000      0.00000000</v>
  </separator>
  <separator name="orbital magnetization" >
   <i type="logical" name="NUCIND"> F  </i>
   <v name="MAGPOS">      0.00000000      0.00000000      0.00000000</v>
   <i type="logical" name="LNICSALL"> T  </i>
   <i type="logical" name="ORBITALMAG"> F  </i>
   <i type="logical" name="LMAGBLOCH"> F  </i>
   <i type="logical" name="LCHIMAG"> F  </i>
   <i type="logical" name="LGAUGE"> T  </i>
   <i type="int" name="MAGATOM">     0</i>
   <v name="MAGDIPOL">      0.00000000      0.00000000      0.00000000</v>
   <v name="AVECCONST">      0.00000000      0.00000000      0.00000000</v>
  </separator>
  <separator name="response functions" >
   <i type="logical" name="LALL_IN_ONE"> F  </i>
   <i type="int" name="IALL_IN_ONE">    -1</i>
   <i type="int" name="NBANDS_WAVE">    -1</i>
   <i type="logical" name="LFINITE_TEMPERATURE"> F  </i>
   <i type="logical" name="LADDER"> F  </i>
   <i type="logical" name="LRPAFORCE"> F  </i>
   <i type="logical" name="LFXC"> F  </i>
   <i type="logical" name="LHARTREE"> T  </i>
   <i type="int" name="IBSE">     0</i>
   <v type="int" name="KPOINT">    -1     0     0     0</v>
   <i type="logical" name="LTCTC"> F  </i>
   <i type="logical" name="LTCTE"> F  </i>
   <i type="logical" name="LTETE"> F  </i>
   <i type="logical" name="LTRIPLET"> F  </i>
   <i type="logical" name="LFXCEPS"> F  </i>
   <i type="logical" name="LFXHEG"> F  </i>
   <i type="int" name="NATURALO">     2</i>
   <i type="logical" name="LHOLEGF"> F  </i>
   <i type="logical" name="L2ORDER"> F  </i>
   <i type="logical" name="LDMP1"> F  </i>
   <i type="logical" name="LMP2LT"> F  </i>
   <i type="logical" name="LSMP2LT"> F  </i>
   <i type="logical" name="LGWLF"> F  </i>
   <i name="ENCUTGW">     -1.60000002</i>
   <i name="ENCUTGWSOFT">     -1.60000002</i>
   <i name="ENCUTLF">     -1.00000000</i>
   <i type="logical" name="ESF_SPLINES"> F  </i>
   <i name="ESF_CONV">      0.01000000</i>
   <i type="int" name="ESF_NINTER">    15</i>
   <i type="int" name="LMAXMP2">    -1</i>
   <i name="SCISSOR">      0.00000000</i>
   <i type="int" name="NOMEGA">     0</i>
   <i type="int" name="NOMEGAR">     0</i>
   <i type="int" name="NBANDSGW">    -1</i>
   <i type="int" name="NBANDSO">    -1</i>
   <i type="int" name="NBANDSV">    -1</i>
   <i type="int" name="NELMGW">     1</i>
   <i type="int" name="NELMHF">     1</i>
   <i type="int" name="DIM">     3</i>
   <i type="int" name="IESPILON">     4</i>
   <i type="int" name="ANTIRES">     0</i>
   <i name="OMEGAMAX">    -30.00000000</i>
   <i name="OMEGAMIN">    -30.00000000</i>
   <i name="OMEGATL">   -200.00000000</i>
   <i type="int" name="OMEGAGRID">     0</i>
   <i name="CSHIFT">     -0.10000000</i>
   <i type="logical" name="LSELFENERGY"> F  </i>
   <i type="logical" name="LSPECTRAL"> F  </i>
   <i type="logical" name="LSPECTRALGW"> F  </i>
   <i type="logical" name="LSINGLES"> F  </i>
   <i type="logical" name="LFERMIGW"> F  </i>
   <i type="logical" name="ODDONLYGW"> F  </i>
   <i type="logical" name="EVENONLYGW"> F  </i>
   <i type="int" name="NKREDLFX">     1</i>
   <i type="int" name="NKREDLFY">     1</i>
   <i type="int" name="NKREDLFZ">     1</i>
   <i type="int" name="MAXMEM">  2800</i>
   <i type="int" name="TELESCOPE">     0</i>
   <i type="int" name="NTAUPAR">    -1</i>
   <i type="int" name="NOMEGAPAR">    -1</i>
   <i name="DAMP_NEWTON">      0.80000001</i>
   <i name="LAMBDA">      1.00000000</i>
  </separator>
  <separator name="External order field" >
   <i name="OFIELD_KAPPA">      0.00000000</i>
   <v name="OFIELD_K">      0.00000000      0.00000000      0.00000000</v>
   <i name="OFIELD_Q6_NEAR">      0.00000000</i>
   <i name="OFIELD_Q6_FAR">      0.00000000</i>
   <i name="OFIELD_A">      0.00000000</i>
  </separator>
  <separator name="optional k-points parameters" >
   <i type="int" name="KPOINTS_OPT_MODE">     1</i>
   <i type="logical" name="LKPOINTS_OPT"> F  </i>
  </separator>
 </parameters>
 <atominfo>
  <atoms>       2 </atoms>
  <types>       1 </types>
  <array name="atoms" >
   <dimension dim="1">ion</dimension>
   <field type="string">element</field>
   <field type="int">atomtype</field>
   <set>
    <rc><c>C </c><c>   1</c></rc>
    <rc><c>C </c><c>   1</c></rc>
   </set>
  </array>
  <array name="atomtypes" >
   <dimension dim="1">type</dimension>
   <field type="int">atomspertype</field>
   <field type="string">element</field>
   <field>mass</field>
   <field>valence</field>
   <field type="string">pseudopotential</field>
   <set>
    <rc><c>   2</c><c>C </c><c>     12.01100000</c><c>      4.00000000</c><c>  PAW_PBE C_s 06Sep2000                 </c></rc>
   </set>
  </array>
 </atominfo>
 <structure name="initialpos" >
  <crystal>
   <varray name="basis" >
    <v>       2.44104624       0.00000000       0.00000000 </v>
    <v>      -1.22052312       2.11400806       0.00000000 </v>
    <v>       0.00000000       0.00000000      10.00000000 </v>
   </varray>
   <i name="volume">     51.60391413 </i>
   <varray name="rec_basis" >
    <v>       0.40966041       0.23651755      -0.00000000 </v>
    <v>       0.00000000       0.47303509       0.00000000 </v>
    <v>       0.00000000      -0.00000000       0.10000000 </v>
   </varray>
  </crystal>
  <varray name="positions" >
   <v>       0.00000000       0.00000000       0.00000000 </v>
   <v>       0.33333333       0.66666667       0.02000000 </v>
  </varray>
  <varray name="selective"  type="logical" >
   <v type="logical" >  F  F  F </v>
   <v type="logical" >  F  F  T </v>
  </varray>
  <nose>
   <v>      -3.00000000       0.00000000       0.00010000       0.00010000 </v>
  </nose>
 </structure>
 <calculation>
  <scstep>
   <time name="dav">    0.05    0.05</time>
   <time name="total">    0.06    0.06</time>
   <energy>
    <i name="alphaZ">      3.71250722 </i>
    <i name="ewald">    385.70992662 </i>
    <i name="hartreedc">   -618.24083069 </i>
    <i name="XCdc">     27.64434795 </i>
    <i name="pawpsdc">    216.69781520 </i>
    <i name="pawaedc">   -218.18290364 </i>
    <i name="eentropy">     -0.00045925 </i>
    <i name="bandstr">    -55.80506319 </i>
    <i name="atom">    294.30283995 </i>
    <i name="e_fr_energy">     35.83818017 </i>
    <i name="e_wo_entrp">     35.83863942 </i>
    <i name="e_0_energy">     35.83833326 </i>
   </energy>
  </scstep>
  <scstep>
   <time name="dav">    0.06    0.06</time>
   <time name="total">    0.06    0.06</time>
   <energy>
    <i name="e_fr_energy">    -17.50885718 </i>
    <i name="e_wo_entrp">    -17.50761449 </i>
    <i name="e_0_energy">    -17.50844295 </i>
   </energy>
  </scstep>
  <scstep>
   <time name="dav">    0.06    0.06</time>
   <time name="total">    0.06    0.06</time>
   <energy>
    <i name="e_fr_energy">    -19.34387752 </i>
    <i name="e_wo_entrp">    -19.34109140 </i>
    <i name="e_0_energy">    -19.34294882 </i>
   </energy>
  </scstep>
  <scstep>
   <time name="dav">    0.08    0.08</time>
   <time name="total">    0.08    0.08</time>
   <energy>
    <i name="e_fr_energy">    -19.37450026 </i>
    <i name="e_wo_entrp">    -19.37171414 </i>
    <i name="e_0_energy">    -19.37357156 </i>
   </energy>
  </scstep>
  <scstep>
   <time name="dav">    0.06    0.06</time>
   <time name="total">    0.07    0.07</time>
   <energy>
    <i name="e_fr_energy">    -19.37450972 </i>
    <i name="e_wo_entrp">    -19.37172360 </i>
    <i name="e_0_energy">    -19.37358101 </i>
   </energy>
  </scstep>
  <scstep>
   <time name="dav">    0.10    0.10</time>
   <time name="total">    0.11    0.11</time>
   <energy>
    <i name="e_fr_energy">    -18.42582664 </i>
    <i name="e_wo_entrp">    -18.42304052 </i>
    <i name="e_0_energy">    -18.42489793 </i>
   </energy>
  </scstep>
  <scstep>
   <time name="dav">    0.11    0.11</time>
   <time name="total">    0.12    0.12</time>
   <energy>
    <i name="e_fr_energy">    -18.10788672 </i>
    <i name="e_wo_entrp">    -18.10510061 </i>
    <i name="e_0_energy">    -18.10695802 </i>
   </energy>
  </scstep>
  <scstep>
   <time name="dav">    0.07    0.07</time>
   <time name="total">    0.08    0.08</time>
   <energy>
    <i name="e_fr_energy">    -18.04106411 </i>
    <i name="e_wo_entrp">    -18.03827800 </i>
    <i name="e_0_energy">    -18.04013541 </i>
   </energy>
  </scstep>
  <scstep>
   <time name="dav">    0.08    0.08</time>
   <time name="total">    0.09    0.09</time>
   <energy>
    <i name="e_fr_energy">    -18.03922316 </i>
    <i name="e_wo_entrp">    -18.03643704 </i>
    <i name="e_0_energy">    -18.03829446 </i>
   </energy>
  </scstep>
  <scstep>
   <time name="dav">    0.08    0.08</time>
   <time name="total">    0.09    0.09</time>
   <energy>
    <i name="e_fr_energy">    -18.03774875 </i>
    <i name="e_wo_entrp">    -18.03496263 </i>
    <i name="e_0_energy">    -18.03682005 </i>
   </energy>
  </scstep>
  <scstep>
   <time name="dav">    0.06    0.06</time>
   <time name="total">    0.07    0.07</time>
   <energy>
    <i name="e_fr_energy">    -18.03486759 </i>
    <i name="e_wo_entrp">    -18.03208146 </i>
    <i name="e_0_energy">    -18.03393888 </i>
   </energy>
  </scstep>
  <scstep>
   <time name="dav">    0.07    0.07</time>
   <time name="total">    0.08    0.08</time>
   <energy>
    <i name="e_fr_energy">    -18.03719557 </i>
    <i name="e_wo_entrp">    -18.03440945 </i>
    <i name="e_0_energy">    -18.03626687 </i>
   </energy>
  </scstep>
  <scstep>
   <time name="dav">    0.06    0.06</time>
   <time name="total">    0.07    0.07</time>
   <energy>
    <i name="e_fr_energy">    -18.03754073 </i>
    <i name="e_wo_entrp">    -18.03475461 </i>
    <i name="e_0_energy">    -18.03661202 </i>
   </energy>
  </scstep>
  <scstep>
   <time name="dav">    0.06    0.06</time>
   <time name="total">    0.07    0.07</time>
   <energy>
    <i name="e_fr_energy">    -18.03782360 </i>
    <i name="e_wo_entrp">    -18.03503747 </i>
    <i name="e_0_energy">    -18.03689489 </i>
   </energy>
  </scstep>
  <scstep>
   <time name="dav">    0.08    0.08</time>
   <time name="total">    0.09    0.09</time>
   <energy>
    <i name="e_fr_energy">    -18.03784250 </i>
    <i name="e_wo_entrp">    -18.03505638 </i>
    <i name="e_0_energy">    -18.03691380 </i>
   </energy>
  </scstep>
  <scstep>
   <time name="dav">    0.07    0.07</time>
   <time name="total">    0.08    0.08</time>
   <energy>
    <i name="alphaZ">      3.71250722 </i>
    <i name="ewald">    385.70992662 </i>
    <i name="hartreedc">   -649.36514735 </i>
    <i name="XCdc">     28.82985342 </i>
    <i name="pawpsdc">   3208.35655622 </i>
    <i name="pawaedc">  -3210.42719807 </i>
    <i name="eentropy">     -0.00278612 </i>
    <i name="bandstr">    -79.15439809 </i>
    <i name="atom">    294.30283995 </i>
    <i name="e_fr_energy">    -18.03784621 </i>
    <i name="e_wo_entrp">    -18.03506009 </i>
    <i name="e_0_energy">    -18.03691750 </i>
   </energy>
  </scstep>
  <structure>
   <crystal>
    <varray name="basis" >
     <v>       2.44104624       0.00000000       0.00000000 </v>
     <v>      -1.22052312       2.11400806       0.00000000 </v>
     <v>       0.00000000       0.00000000      10.00000000 </v>
    </varray>
    <i name="volume">     51.60391413 </i>
    <varray name="rec_basis" >
     <v>       0.40966041       0.23651755      -0.00000000 </v>
     <v>       0.00000000       0.47303509       0.00000000 </v>
     <v>       0.00000000      -0.00000000       0.10000000 </v>
    </varray>
   </crystal>
   <varray name="positions" >
    <v>       0.00000000       0.00000000       0.00000000 </v>
    <v>       0.33333333       0.66666667       0.02000000 </v>
   </varray>
  </structure>
  <varray name="forces" >
   <v>      -0.00000000       0.00000000       3.35322501 </v>
   <v>       0.00000000      -0.00000000      -3.35322501 </v>
  </varray>
  <varray name="stress" >
   <v>      51.39086440      -0.00000000       0.00000000 </v>
   <v>      -0.00000000      51.39086440       0.00000000 </v>
   <v>       0.00000000       0.00000000     -22.80259401 </v>
  </varray>
  <energy>
   <i name="e_fr_energy">    -18.03784621 </i>
   <i name="e_wo_entrp">    -18.03506009 </i>
   <i name="e_0_energy">    -18.03691750 </i>
  </energy>
  <time name="totalsc">    1.39    1.39</time>
 </calculation>
 <calculation>
  <scstep>
   <time name="dav">    0.07    0.07</time>
   <time name="total">    0.08    0.08</time>
   <energy>
    <i name="alphaZ">      3.49482117 </i>
    <i name="ewald">    326.76664121 </i>
    <i name="hartreedc">   -594.80210284 </i>
    <i name="XCdc">     28.36215402 </i>
    <i name="pawpsdc">   3208.48701122 </i>
    <i name="pawaedc">  -3210.55766072 </i>
    <i name="eentropy">     -0.00266127 </i>
    <i name="bandstr">    -74.37519559 </i>
    <i name="atom">    294.30283995 </i>
    <i name="e_fr_energy">    -18.32415285 </i>
    <i name="e_wo_entrp">    -18.32149158 </i>
    <i name="e_0_energy">    -18.32326576 </i>
   </energy>
  </scstep>
  <scstep>
   <time name="dav">    0.08    0.08</time>
   <time name="total">    0.09    0.09</time>
   <energy>
    <i name="e_fr_energy">    -18.31865955 </i>
    <i name="e_wo_entrp">    -18.31595501 </i>
    <i name="e_0_energy">    -18.31775804 </i>
   </energy>
  </scstep>
  <scstep>
   <time name="dav">    0.11    0.11</time>
   <time name="total">    0.12    0.12</time>
   <energy>
    <i name="e_fr_energy">    -18.29749590 </i>
    <i name="e_wo_entrp">    -18.29471100 </i>
    <i name="e_0_energy">    -18.29656760 </i>
   </energy>
  </scstep>
  <scstep>
   <time name="dav">    0.08    0.08</time>
   <time name="total">    0.09    0.09</time>
   <energy>
    <i name="e_fr_energy">    -18.28755319 </i>
    <i name="e_wo_entrp">    -18.28477775 </i>
    <i name="e_0_energy">    -18.28662804 </i>
   </energy>
  </scstep>
  <scstep>
   <time name="dav">    0.08    0.08</time>
   <time name="total">    0.09    0.09</time>
   <energy>
    <i name="e_fr_energy">    -18.28738624 </i>
    <i name="e_wo_entrp">    -18.28460026 </i>
    <i name="e_0_energy">    -18.28645758 </i>
   </energy>
  </scstep>
  <scstep>
   <time name="dav">    0.06    0.06</time>
   <time name="total">    0.07    0.07</time>
   <energy>
    <i name="e_fr_energy">    -18.28735959 </i>
    <i name="e_wo_entrp">    -18.28457349 </i>
    <i name="e_0_energy">    -18.28643089 </i>
   </energy>
  </scstep>
  <scstep>
   <time name="dav">    0.05    0.05</time>
   <time name="total">    0.06    0.06</time>
   <energy>
    <i name="e_fr_energy">    -18.28738439 </i>
    <i name="e_wo_entrp">    -18.28459832 </i>
    <i name="e_0_energy">    -18.28645570 </i>
   </energy>
  </scstep>
  <scstep>
   <time name="dav">    0.05    0.05</time>
   <time name="total">    0.06    0.06</time>
   <energy>
    <i name="e_fr_energy">    -18.28741478 </i>
    <i name="e_wo_entrp">    -18.28462871 </i>
    <i name="e_0_energy">    -18.28648609 </i>
   </energy>
  </scstep>
  <scstep>
   <time name="dav">    0.07    0.07</time>
   <time name="total">    0.08    0.08</time>
   <energy>
    <i name="alphaZ">      3.49482117 </i>
    <i name="ewald">    326.76664121 </i>
    <i name="hartreedc">   -588.93199071 </i>
    <i name="XCdc">     28.25280639 </i>
    <i name="pawpsdc">   2669.91055577 </i>
    <i name="pawaedc">  -2671.95026518 </i>
    <i name="eentropy">     -0.00278612 </i>
    <i name="bandstr">    -80.13003619 </i>
    <i name="atom">    294.30283995 </i>
    <i name="e_fr_energy">    -18.28741370 </i>
    <i name="e_wo_entrp">    -18.28462758 </i>
    <i name="e_0_energy">    -18.28648499 </i>
   </energy>
  </scstep>
  <structure>
   <crystal>
    <varray name="basis" >
     <v>       2.53850821      -0.00000000       0.00000000 </v>
     <v>      -1.26925410       2.19841260      -0.00000000 </v>
     <v>       0.00000000       0.00000000       9.82284333 </v>
    </varray>
    <i name="volume">     54.81822808 </i>
    <varray name="rec_basis" >
     <v>       0.39393215       0.22743683      -0.00000000 </v>
     <v>       0.00000000       0.45487367      -0.00000000 </v>
     <v>      -0.00000000      -0.00000000       0.10180352 </v>
    </varray>
   </crystal>
   <varray name="positions" >
    <v>       0.00000000       0.00000000       0.00000000 </v>
    <v>       0.33333333       0.66666667       0.00382315 </v>
   </varray>
  </structure>
  <varray name="forces" >
   <v>       0.00000000       0.00000000       0.61816293 </v>
   <v>      -0.00000000      -0.00000000      -0.61816293 </v>
  </varray>
  <varray name="stress" >
   <v>    -101.48557854       0.00000000      -0.00000000 </v>
   <v>       0.00000000    -101.48557855      -0.00000000 </v>
   <v>       0.00000000      -0.00000000      -2.12075213 </v>
  </varray>
  <energy>
   <i name="e_fr_energy">    -18.28741370 </i>
   <i name="e_wo_entrp">    -18.28462758 </i>
   <i name="e_0_energy">    -18.28648499 </i>
  </energy>
  <time name="totalsc">    0.85    0.85</time>
 </calculation>
 <calculation>
  <scstep>
   <time name="dav">    0.05    0.05</time>
   <time name="total">    0.06    0.06</time>
   <energy>
    <i name="alphaZ">      3.53867665 </i>
    <i name="ewald">    339.18342843 </i>
    <i name="hartreedc">   -600.07372784 </i>
    <i name="XCdc">     28.35566064 </i>
    <i name="pawpsdc">   2669.38882097 </i>
    <i name="pawaedc">  -2671.42844904 </i>
    <i name="eentropy">     -0.00277763 </i>
    <i name="bandstr">    -81.57029550 </i>
    <i name="atom">    294.30283995 </i>
    <i name="e_fr_energy">    -18.30582336 </i>
    <i name="e_wo_entrp">    -18.30304573 </i>
    <i name="e_0_energy">    -18.30489749 </i>
   </energy>
  </scstep>
  <scstep>
   <time name="dav">    0.07    0.07</time>
   <time name="total">    0.08    0.08</time>
   <energy>
    <i name="e_fr_energy">    -18.30591293 </i>
    <i name="e_wo_entrp">    -18.30312717 </i>
    <i name="e_0_energy">    -18.30498434 </i>
   </energy>
  </scstep>
  <scstep>
   <time name="dav">    0.06    0.06</time>
   <time name="total">    0.07    0.07</time>
   <energy>
    <i name="e_fr_energy">    -18.30485059 </i>
    <i name="e_wo_entrp">    -18.30206448 </i>
    <i name="e_0_energy">    -18.30392188 </i>
   </energy>
  </scstep>
  <scstep>
   <time name="dav">    0.07    0.07</time>
   <time name="total">    0.08    0.08</time>
   <energy>
    <i name="e_fr_energy">    -18.30428823 </i>
    <i name="e_wo_entrp">    -18.30150219 </i>
    <i name="e_0_energy">    -18.30335955 </i>
   </energy>
  </scstep>
  <scstep>
   <time name="dav">    0.05    0.05</time>
   <time name="total">    0.06    0.06</time>
   <energy>
    <i name="alphaZ">      3.53867665 </i>
    <i name="ewald">    339.18342843 </i>
    <i name="hartreedc">   -601.22570724 </i>
    <i name="XCdc">     28.38175947 </i>
    <i name="pawpsdc">   2796.17691896 </i>
    <i name="pawaedc">  -2798.22609277 </i>
    <i name="eentropy">     -0.00278611 </i>
    <i name="bandstr">    -80.43331785 </i>
    <i name="atom">    294.30283995 </i>
    <i name="e_fr_energy">    -18.30428051 </i>
    <i name="e_wo_entrp">    -18.30149440 </i>
    <i name="e_0_energy">    -18.30335180 </i>
   </energy>
  </scstep>
  <structure>
   <crystal>
    <varray name="basis" >
     <v>       2.51794239      -0.00000000       0.00000000 </v>
     <v>      -1.25897119       2.18060207      -0.00000000 </v>
     <v>       0.00000000       0.00000000       9.86022584 </v>
    </varray>
    <i name="volume">     54.13885554 </i>
    <varray name="rec_basis" >
     <v>       0.39714967       0.22929447      -0.00000000 </v>
     <v>       0.00000000       0.45858894      -0.00000000 </v>
     <v>      -0.00000000      -0.00000000       0.10141756 </v>
    </varray>
   </crystal>
   <varray name="positions" >
    <v>       0.00000000       0.00000000       0.00000000 </v>
    <v>       0.33333333       0.66666667       0.00729825 </v>
   </varray>
  </structure>
  <varray name="forces" >
   <v>       0.00000000       0.00000000       1.19711954 </v>
   <v>      -0.00000000      -0.00000000      -1.19711954 </v>
  </varray>
  <varray name="stress" >
   <v>     -72.44383747       0.00000000       0.00000000 </v>
   <v>       0.00000000     -72.44383747       0.00000000 </v>
   <v>       0.00000000       0.00000000      -2.55172760 </v>
  </varray>
  <energy>
   <i name="e_fr_energy">    -18.30428051 </i>
   <i name="e_wo_entrp">    -18.30149440 </i>
   <i name="e_0_energy">    -18.30335180 </i>
  </energy>
  <time name="totalsc">    0.43    0.43</time>
 </calculation>
 <calculation>
  <scstep>
   <time name="dav">    0.05    0.05</time>
   <time name="total">    0.06    0.06</time>
   <energy>
    <i name="alphaZ">      3.85450947 </i>
    <i name="ewald">    376.24540034 </i>
    <i name="hartreedc">   -640.10224367 </i>
    <i name="XCdc">     29.15492218 </i>
    <i name="pawpsdc">   2795.52041633 </i>
    <i name="pawaedc">  -2797.56930997 </i>
    <i name="eentropy">     -0.00256216 </i>
    <i name="bandstr">    -79.72356755 </i>
    <i name="atom">    294.30283995 </i>
    <i name="e_fr_energy">    -18.31959508 </i>
    <i name="e_wo_entrp">    -18.31703292 </i>
    <i name="e_0_energy">    -18.31874103 </i>
   </energy>
  </scstep>
  <scstep>
   <time name="dav">    0.07    0.07</time>
   <time name="total">    0.08    0.08</time>
   <energy>
    <i name="e_fr_energy">    -18.32501300 </i>
    <i name="e_wo_entrp">    -18.32222825 </i>
    <i name="e_0_energy">    -18.32408475 </i>
   </energy>
  </scstep>
  <scstep>
   <time name="dav">    0.07    0.07</time>
   <time name="total">    0.09    0.09</time>
   <energy>
    <i name="e_fr_energy">    -18.31121048 </i>
    <i name="e_wo_entrp">    -18.30842473 </i>
    <i name="e_0_energy">    -18.31028190 </i>
   </energy>
  </scstep>
  <scstep>
   <time name="dav">    0.07    0.07</time>
   <time name="total">    0.08    0.08</time>
   <energy>
    <i name="e_fr_energy">    -18.31102647 </i>
    <i name="e_wo_entrp">    -18.30824036 </i>
    <i name="e_0_energy">    -18.31009777 </i>
   </energy>
  </scstep>
  <scstep>
   <time name="dav">    0.06    0.06</time>
   <time name="total">    0.07    0.07</time>
   <energy>
    <i name="e_fr_energy">    -18.31090591 </i>
    <i name="e_wo_entrp">    -18.30811982 </i>
    <i name="e_0_energy">    -18.30997721 </i>
   </energy>
  </scstep>
  <scstep>
   <time name="dav">    0.06    0.06</time>
   <time name="total">    0.07    0.07</time>
   <energy>
    <i name="e_fr_energy">    -18.31089739 </i>
    <i name="e_wo_entrp">    -18.30811127 </i>
    <i name="e_0_energy">    -18.30996869 </i>
   </energy>
  </scstep>
  <scstep>
   <time name="dav">    0.06    0.06</time>
   <time name="total">    0.07    0.07</time>
   <energy>
    <i name="e_fr_energy">    -18.31091732 </i>
    <i name="e_wo_entrp">    -18.30813120 </i>
    <i name="e_0_energy">    -18.30998861 </i>
   </energy>
  </scstep>
  <scstep>
   <time name="dav">    0.06    0.06</time>
   <time name="total">    0.07    0.07</time>
   <energy>
    <i name="e_fr_energy">    -18.31093383 </i>
    <i name="e_wo_entrp">    -18.30814770 </i>
    <i name="e_0_energy">    -18.31000512 </i>
   </energy>
  </scstep>
  <scstep>
   <time name="dav">    0.05    0.05</time>
   <time name="total">    0.06    0.06</time>
   <energy>
    <i name="e_fr_energy">    -18.31094744 </i>
    <i name="e_wo_entrp">    -18.30816132 </i>
    <i name="e_0_energy">    -18.31001874 </i>
   </energy>
  </scstep>
  <scstep>
   <time name="dav">    0.05    0.05</time>
   <time name="total">    0.06    0.06</time>
   <energy>
    <i name="e_fr_energy">    -18.31097163 </i>
    <i name="e_wo_entrp">    -18.30818551 </i>
    <i name="e_0_energy">    -18.31004292 </i>
   </energy>
  </scstep>
  <scstep>
   <time name="dav">    0.06    0.06</time>
   <time name="total">    0.07    0.07</time>
   <energy>
    <i name="alphaZ">      3.85450947 </i>
    <i name="ewald">    376.24540034 </i>
    <i name="hartreedc">   -640.10463066 </i>
    <i name="XCdc">     29.07255093 </i>
    <i name="pawpsdc">   3517.33533941 </i>
    <i name="pawaedc">  -3519.43985586 </i>
    <i name="eentropy">     -0.00278612 </i>
    <i name="bandstr">    -79.57434268 </i>
    <i name="atom">    294.30283995 </i>
    <i name="e_fr_energy">    -18.31097521 </i>
    <i name="e_wo_entrp">    -18.30818909 </i>
    <i name="e_0_energy">    -18.31004651 </i>
   </energy>
  </scstep>
  <structure>
   <crystal>
    <varray name="basis" >
     <v>       2.42576714       0.00000000       0.00000000 </v>
     <v>      -1.21288357       2.10077597      -0.00000000 </v>
     <v>       0.00000000       0.00000000       9.75330901 </v>
    </varray>
    <i name="volume">     49.70279754 </i>
    <varray name="rec_basis" >
     <v>       0.41224072       0.23800729      -0.00000000 </v>
     <v>      -0.00000000       0.47601458      -0.00000000 </v>
     <v>      -0.00000000       0.00000000       0.10252931 </v>
    </varray>
   </crystal>
   <varray name="positions" >
    <v>       0.00000000       0.00000000       0.00000000 </v>
    <v>       0.33333333       0.66666667       0.99349145 </v>
   </varray>
  </structure>
  <varray name="forces" >
   <v>      -0.00000000      -0.00000000      -1.04465616 </v>
   <v>       0.00000000       0.00000000       1.04465616 </v>
  </varray>
  <varray name="stress" >
   <v>      86.75465744      -0.00000000      -0.00000000 </v>
   <v>      -0.00000000      86.75465744      -0.00000000 </v>
   <v>      -0.00000000       0.00000000      -3.16470053 </v>
  </varray>
  <energy>
   <i name="e_fr_energy">    -18.31097521 </i>
   <i name="e_wo_entrp">    -18.30818909 </i>
   <i name="e_0_energy">    -18.31004651 </i>
  </energy>
  <time name="totalsc">    0.87    0.87</time>
 </calculation>
 <calculation>
  <scstep>
   <time name="dav">    0.05    0.05</time>
   <time name="total">    0.06    0.06</time>
   <energy>
    <i name="alphaZ">      3.69596063 </i>
    <i name="ewald">    358.30629644 </i>
    <i name="hartreedc">   -621.05278792 </i>
    <i name="XCdc">     28.69651260 </i>
    <i name="pawpsdc">   3517.24772574 </i>
    <i name="pawaedc">  -3519.35223037 </i>
    <i name="eentropy">     -0.00278600 </i>
    <i name="bandstr">    -80.23476674 </i>
    <i name="atom">    294.30283995 </i>
    <i name="e_fr_energy">    -18.39323567 </i>
    <i name="e_wo_entrp">    -18.39044966 </i>
    <i name="e_0_energy">    -18.39230700 </i>
   </energy>
  </scstep>
  <scstep>
   <time name="dav">    0.06    0.06</time>
   <time name="total">    0.07    0.07</time>
   <energy>
    <i name="e_fr_energy">    -18.39716491 </i>
    <i name="e_wo_entrp">    -18.39438235 </i>
    <i name="e_0_energy">    -18.39623739 </i>
   </energy>
  </scstep>
  <scstep>
   <time name="dav">    0.07    0.07</time>
   <time name="total">    0.09    0.09</time>
   <energy>
    <i name="e_fr_energy">    -18.39422558 </i>
    <i name="e_wo_entrp">    -18.39144022 </i>
    <i name="e_0_energy">    -18.39329713 </i>
   </energy>
  </scstep>
  <scstep>
   <time name="dav">    0.06    0.06</time>
   <time name="total">    0.08    0.08</time>
   <energy>
    <i name="e_fr_energy">    -18.39384106 </i>
    <i name="e_wo_entrp">    -18.39105523 </i>
    <i name="e_0_energy">    -18.39291245 </i>
   </energy>
  </scstep>
  <scstep>
   <time name="dav">    0.07    0.07</time>
   <time name="total">    0.08    0.08</time>
   <energy>
    <i name="e_fr_energy">    -18.39381674 </i>
    <i name="e_wo_entrp">    -18.39103066 </i>
    <i name="e_0_energy">    -18.39288805 </i>
   </energy>
  </scstep>
  <scstep>
   <time name="dav">    0.07    0.07</time>
   <time name="total">    0.08    0.08</time>
   <energy>
    <i name="e_fr_energy">    -18.39380656 </i>
    <i name="e_wo_entrp">    -18.39102044 </i>
    <i name="e_0_energy">    -18.39287785 </i>
   </energy>
  </scstep>
  <scstep>
   <time name="dav">    0.06    0.06</time>
   <time name="total">    0.07    0.07</time>
   <energy>
    <i name="alphaZ">      3.69596063 </i>
    <i name="ewald">    358.30629644 </i>
    <i name="hartreedc">   -621.37504001 </i>
    <i name="XCdc">     28.74616334 </i>
    <i name="pawpsdc">   3165.15988048 </i>
    <i name="pawaedc">  -3167.23948767 </i>
    <i name="eentropy">     -0.00278612 </i>
    <i name="bandstr">    -79.98763465 </i>
    <i name="atom">    294.30283995 </i>
    <i name="e_fr_energy">    -18.39380761 </i>
    <i name="e_wo_entrp">    -18.39102149 </i>
    <i name="e_0_energy">    -18.39287890 </i>
   </energy>
  </scstep>
  <structure>
   <crystal>
    <varray name="basis" >
     <v>       2.47066376      -0.00000000       0.00000000 </v>
     <v>      -1.23533188       2.13965758      -0.00000000 </v>
     <v>       0.00000000       0.00000000       9.80538594 </v>
    </varray>
    <i name="volume">     51.83494173 </i>
    <varray name="rec_basis" >
     <v>       0.40474953       0.23368225      -0.00000000 </v>
     <v>       0.00000000       0.46736450      -0.00000000 </v>
     <v>      -0.00000000       0.00000000       0.10198477 </v>
    </varray>
   </crystal>
   <varray name="positions" >
    <v>       0.00000000       0.00000000       0.00000000 </v>
    <v>       0.33333333       0.66666667       0.00029017 </v>
   </varray>
  </structure>
  <varray name="forces" >
   <v>       0.00000000       0.00000000       0.04826312 </v>
   <v>      -0.00000000      -0.00000000      -0.04826312 </v>
  </varray>
  <varray name="stress" >
   <v>       1.79323612      -0.00000000      -0.00000000 </v>
   <v>      -0.00000000       1.79323612       0.00000000 </v>
   <v>      -0.00000000       0.00000000      -2.22925538 </v>
  </varray>
  <energy>
   <i name="e_fr_energy">    -18.39380761 </i>
   <i name="e_wo_entrp">    -18.39102149 </i>
   <i name="e_0_energy">    -18.39287890 </i>
  </energy>
  <time name="totalsc">    0.60    0.60</time>
 </calculation>
 <calculation>
  <scstep>
   <time name="dav">    0.05    0.05</time>
   <time name="total">    0.07    0.07</time>
   <energy>
    <i name="alphaZ">      3.69736155 </i>
    <i name="ewald">    358.47074622 </i>
    <i name="hartreedc">   -621.53622183 </i>
    <i name="XCdc">     28.74946386 </i>
    <i name="pawpsdc">   3165.60018305 </i>
    <i name="pawaedc">  -3167.67982883 </i>
    <i name="eentropy">     -0.00278612 </i>
    <i name="bandstr">    -79.99557777 </i>
    <i name="atom">    294.30283995 </i>
    <i name="e_fr_energy">    -18.39381992 </i>
    <i name="e_wo_entrp">    -18.39103380 </i>
    <i name="e_0_energy">    -18.39289121 </i>
   </energy>
  </scstep>
  <scstep>
   <time name="dav">    0.07    0.07</time>
   <time name="total">    0.07    0.07</time>
   <energy>
    <i name="alphaZ">      3.69736155 </i>
    <i name="ewald">    358.47074622 </i>
    <i name="hartreedc">   -621.53042861 </i>
    <i name="XCdc">     28.74923687 </i>
    <i name="pawpsdc">   3166.80741168 </i>
    <i name="pawaedc">  -3168.88715599 </i>
    <i name="eentropy">     -0.00278612 </i>
    <i name="bandstr">    -80.00104747 </i>
    <i name="atom">    294.30283995 </i>
    <i name="e_fr_energy">    -18.39382192 </i>
    <i name="e_wo_entrp">    -18.39103579 </i>
    <i name="e_0_energy">    -18.39289321 </i>
   </energy>
  </scstep>
  <structure>
   <crystal>
    <varray name="basis" >
     <v>       2.47025533      -0.00000000       0.00000000 </v>
     <v>      -1.23512767       2.13930387      -0.00000000 </v>
     <v>       0.00000000       0.00000000       9.80491219 </v>
    </varray>
    <i name="volume">     51.81530171 </i>
    <varray name="rec_basis" >
     <v>       0.40481645       0.23372089      -0.00000000 </v>
     <v>       0.00000000       0.46744178      -0.00000000 </v>
     <v>      -0.00000000       0.00000000       0.10198969 </v>
    </varray>
   </crystal>
   <varray name="positions" >
    <v>       0.00000000       0.00000000       0.00000000 </v>
    <v>       0.33333333       0.66666667       0.00022865 </v>
   </varray>
  </structure>
  <varray name="forces" >
   <v>       0.00000000       0.00000000       0.03790459 </v>
   <v>      -0.00000000      -0.00000000      -0.03790459 </v>
  </varray>
  <varray name="stress" >
   <v>       2.17765590      -0.00000000      -0.00000000 </v>
   <v>      -0.00000000       2.17765590       0.00000000 </v>
   <v>      -0.00000000       0.00000000      -2.18953558 </v>
  </varray>
  <energy>
   <i name="e_fr_energy">    -18.39382192 </i>
   <i name="e_wo_entrp">    -18.39103579 </i>
   <i name="e_0_energy">    -18.39289321 </i>
  </energy>
  <time name="totalsc">    0.23    0.23</time>
 </calculation>
 <calculation>
  <scstep>
   <time name="dav">    0.06    0.06</time>
   <time name="total">    0.07    0.07</time>
   <energy>
    <i name="alphaZ">      3.69782410 </i>
    <i name="ewald">    358.52502152 </i>
    <i name="hartreedc">   -621.57995358 </i>
    <i name="XCdc">     28.75013091 </i>
    <i name="pawpsdc">   3168.21896090 </i>
    <i name="pawaedc">  -3170.29882498 </i>
    <i name="eentropy">     -0.00278612 </i>
    <i name="bandstr">    -80.00703657 </i>
    <i name="atom">    294.30283995 </i>
    <i name="e_fr_energy">    -18.39382386 </i>
    <i name="e_wo_entrp">    -18.39103774 </i>
    <i name="e_0_energy">    -18.39289516 </i>
   </energy>
  </scstep>
  <scstep>
   <time name="dav">    0.07    0.07</time>
   <time name="total">    0.08    0.08</time>
   <energy>
    <i name="alphaZ">      3.69782410 </i>
    <i name="ewald">    358.52502152 </i>
    <i name="hartreedc">   -621.57613643 </i>
    <i name="XCdc">     28.74999768 </i>
    <i name="pawpsdc">   3168.94011285 </i>
    <i name="pawaedc">  -3171.02003639 </i>
    <i name="eentropy">     -0.00278612 </i>
    <i name="bandstr">    -80.01066212 </i>
    <i name="atom">    294.30283995 </i>
    <i name="e_fr_energy">    -18.39382496 </i>
    <i name="e_wo_entrp">    -18.39103884 </i>
    <i name="e_0_energy">    -18.39289626 </i>
   </energy>
  </scstep>
  <structure>
   <crystal>
    <varray name="basis" >
     <v>       2.47012052      -0.00000000       0.00000000 </v>
     <v>      -1.23506026       2.13918712      -0.00000000 </v>
     <v>       0.00000000       0.00000000       9.80475582 </v>
    </varray>
    <i name="volume">     51.80882017 </i>
    <varray name="rec_basis" >
     <v>       0.40483855       0.23373364      -0.00000000 </v>
     <v>       0.00000000       0.46746729      -0.00000000 </v>
     <v>      -0.00000000       0.00000000       0.10199132 </v>
    </varray>
   </crystal>
   <varray name="positions" >
    <v>       0.00000000       0.00000000       0.00000000 </v>
    <v>       0.33333333       0.66666667       0.00020835 </v>
   </varray>
  </structure>
  <varray name="forces" >
   <v>       0.00000000       0.00000000       0.03457542 </v>
   <v>      -0.00000000      -0.00000000      -0.03457542 </v>
  </varray>
  <varray name="stress" >
   <v>       2.43647765      -0.00000000      -0.00000000 </v>
   <v>      -0.00000000       2.43647765       0.00000000 </v>
   <v>      -0.00000000       0.00000000      -2.13702373 </v>
  </varray>
  <energy>
   <i name="e_fr_energy">    -18.39382496 </i>
   <i name="e_wo_entrp">    -18.39103884 </i>
   <i name="e_0_energy">    -18.39289626 </i>
  </energy>
  <time name="totalsc">    0.23    0.23</time>
 </calculation>
 <calculation>
  <scstep>
   <time name="dav">    0.06    0.06</time>
   <time name="total">    0.07    0.07</time>
   <energy>
    <i name="alphaZ">      3.69769093 </i>
    <i name="ewald">    358.50939613 </i>
    <i name="hartreedc">   -621.55246466 </i>
    <i name="XCdc">     28.74946716 </i>
    <i name="pawpsdc">   3170.01640787 </i>
    <i name="pawaedc">  -3172.09642739 </i>
    <i name="eentropy">     -0.00278612 </i>
    <i name="bandstr">    -80.01795108 </i>
    <i name="atom">    294.30283995 </i>
    <i name="e_fr_energy">    -18.39382721 </i>
    <i name="e_wo_entrp">    -18.39104109 </i>
    <i name="e_0_energy">    -18.39289851 </i>
   </energy>
  </scstep>
  <scstep>
   <time name="dav">    0.07    0.07</time>
   <time name="total">    0.08    0.08</time>
   <energy>
    <i name="alphaZ">      3.69769093 </i>
    <i name="ewald">    358.50939613 </i>
    <i name="hartreedc">   -621.55090985 </i>
    <i name="XCdc">     28.74947138 </i>
    <i name="pawpsdc">   3169.87553884 </i>
    <i name="pawaedc">  -3171.95555577 </i>
    <i name="eentropy">     -0.00278612 </i>
    <i name="bandstr">    -80.01951337 </i>
    <i name="atom">    294.30283995 </i>
    <i name="e_fr_energy">    -18.39382787 </i>
    <i name="e_wo_entrp">    -18.39104175 </i>
    <i name="e_0_energy">    -18.39289916 </i>
   </energy>
  </scstep>
  <structure>
   <crystal>
    <varray name="basis" >
     <v>       2.47015933      -0.00000000       0.00000000 </v>
     <v>      -1.23507967       2.13922073      -0.00000000 </v>
     <v>       0.00000000       0.00000000       9.80480084 </v>
    </varray>
    <i name="volume">     51.81068612 </i>
    <varray name="rec_basis" >
     <v>       0.40483218       0.23372997      -0.00000000 </v>
     <v>       0.00000000       0.46745994      -0.00000000 </v>
     <v>      -0.00000000       0.00000000       0.10199085 </v>
    </varray>
   </crystal>
   <varray name="positions" >
    <v>       0.00000000       0.00000000       0.00000000 </v>
    <v>       0.33333333       0.66666667       0.00021419 </v>
   </varray>
  </structure>
  <varray name="forces" >
   <v>       0.00000000       0.00000000       0.03556239 </v>
   <v>      -0.00000000      -0.00000000      -0.03556239 </v>
  </varray>
  <varray name="stress" >
   <v>       2.40072192      -0.00000000       0.00000000 </v>
   <v>      -0.00000000       2.40072192       0.00000000 </v>
   <v>       0.00000000       0.00000000      -2.10031633 </v>
  </varray>
  <energy>
   <i name="e_fr_energy">    -18.39382787 </i>
   <i name="e_wo_entrp">    -18.39104175 </i>
   <i name="e_0_energy">    -18.39289916 </i>
  </energy>
  <time name="totalsc">    0.23    0.23</time>
 </calculation>
 <calculation>
  <scstep>
   <time name="dav">    0.06    0.06</time>
   <time name="total">    0.07    0.07</time>
   <energy>
    <i name="alphaZ">      3.69763063 </i>
    <i name="ewald">    358.50232160 </i>
    <i name="hartreedc">   -621.54141336 </i>
    <i name="XCdc">     28.74931834 </i>
    <i name="pawpsdc">   3169.71895652 </i>
    <i name="pawaedc">  -3171.79896730 </i>
    <i name="eentropy">     -0.00278612 </i>
    <i name="bandstr">    -80.02172888 </i>
    <i name="atom">    294.30283995 </i>
    <i name="e_fr_energy">    -18.39382862 </i>
    <i name="e_wo_entrp">    -18.39104249 </i>
    <i name="e_0_energy">    -18.39289991 </i>
   </energy>
  </scstep>
  <scstep>
   <time name="dav">    0.06    0.06</time>
   <time name="total">    0.07    0.07</time>
   <energy>
    <i name="alphaZ">      3.69763063 </i>
    <i name="ewald">    358.50232160 </i>
    <i name="hartreedc">   -621.54017892 </i>
    <i name="XCdc">     28.74931673 </i>
    <i name="pawpsdc">   3169.62284010 </i>
    <i name="pawaedc">  -3171.70284508 </i>
    <i name="eentropy">     -0.00278612 </i>
    <i name="bandstr">    -80.02296790 </i>
    <i name="atom">    294.30283995 </i>
    <i name="e_fr_energy">    -18.39382901 </i>
    <i name="e_wo_entrp">    -18.39104289 </i>
    <i name="e_0_energy">    -18.39290030 </i>
   </energy>
  </scstep>
  <structure>
   <crystal>
    <varray name="basis" >
     <v>       2.47017691      -0.00000000       0.00000000 </v>
     <v>      -1.23508845       2.13923595      -0.00000000 </v>
     <v>       0.00000000       0.00000000       9.80482122 </v>
    </varray>
    <i name="volume">     51.81153096 </i>
    <varray name="rec_basis" >
     <v>       0.40482930       0.23372831      -0.00000000 </v>
     <v>       0.00000000       0.46745662      -0.00000000 </v>
     <v>      -0.00000000       0.00000000       0.10199064 </v>
    </varray>
   </crystal>
   <varray name="positions" >
    <v>       0.00000000       0.00000000       0.00000000 </v>
    <v>       0.33333333       0.66666667       0.00021684 </v>
   </varray>
  </structure>
  <varray name="forces" >
   <v>       0.00000000       0.00000000       0.03600221 </v>
   <v>      -0.00000000      -0.00000000      -0.03600221 </v>
  </varray>
  <varray name="stress" >
   <v>       2.36758865      -0.00000000       0.00000000 </v>
   <v>      -0.00000000       2.36758865      -0.00000000 </v>
   <v>       0.00000000       0.00000000      -2.09378292 </v>
  </varray>
  <energy>
   <i name="e_fr_energy">    -18.39382901 </i>
   <i name="e_wo_entrp">    -18.39104289 </i>
   <i name="e_0_energy">    -18.39290030 </i>
  </energy>
  <time name="totalsc">    0.23    0.23</time>
 </calculation>
 <calculation>
  <scstep>
   <time name="dav">    0.05    0.05</time>
   <time name="total">    0.06    0.06</time>
   <energy>
    <i name="alphaZ">      3.69674798 </i>
    <i name="ewald">    355.90126830 </i>
    <i name="hartreedc">   -619.44437806 </i>
    <i name="XCdc">     28.74667955 </i>
    <i name="pawpsdc">   3169.45825284 </i>
    <i name="pawaedc">  -3171.53824688 </i>
    <i name="eentropy">     -0.00278612 </i>
    <i name="bandstr">    -79.51460738 </i>
    <i name="atom">    294.30283995 </i>
    <i name="e_fr_energy">    -18.39422982 </i>
    <i name="e_wo_entrp">    -18.39144370 </i>
    <i name="e_0_energy">    -18.39330112 </i>
   </energy>
  </scstep>
  <scstep>
   <time name="dav">    0.06    0.06</time>
   <time name="total">    0.08    0.08</time>
   <energy>
    <i name="e_fr_energy">    -18.39407870 </i>
    <i name="e_wo_entrp">    -18.39129260 </i>
    <i name="e_0_energy">    -18.39315000 </i>
   </energy>
  </scstep>
  <scstep>
   <time name="dav">    0.07    0.07</time>
   <time name="total">    0.08    0.08</time>
   <energy>
    <i name="e_fr_energy">    -18.39399671 </i>
    <i name="e_wo_entrp">    -18.39121059 </i>
    <i name="e_0_energy">    -18.39306800 </i>
   </energy>
  </scstep>
  <scstep>
   <time name="dav">    0.07    0.07</time>
   <time name="total">    0.08    0.08</time>
   <energy>
    <i name="e_fr_energy">    -18.39395971 </i>
    <i name="e_wo_entrp">    -18.39117360 </i>
    <i name="e_0_energy">    -18.39303101 </i>
   </energy>
  </scstep>
  <scstep>
   <time name="dav">    0.05    0.05</time>
   <time name="total">    0.06    0.06</time>
   <energy>
    <i name="alphaZ">      3.69674798 </i>
    <i name="ewald">    355.90126830 </i>
    <i name="hartreedc">   -619.02393133 </i>
    <i name="XCdc">     28.73305879 </i>
    <i name="pawpsdc">   3151.59356868 </i>
    <i name="pawaedc">  -3153.67202903 </i>
    <i name="eentropy">     -0.00278612 </i>
    <i name="bandstr">    -79.92269971 </i>
    <i name="atom">    294.30283995 </i>
    <i name="e_fr_energy">    -18.39396249 </i>
    <i name="e_wo_entrp">    -18.39117636 </i>
    <i name="e_0_energy">    -18.39303378 </i>
   </energy>
  </scstep>
  <structure>
   <crystal>
    <varray name="basis" >
     <v>       2.47246606      -0.00000000       0.00000000 </v>
     <v>      -1.23623303       2.14121842      -0.00000000 </v>
     <v>       0.00000000       0.00000000       9.78901060 </v>
    </varray>
    <i name="volume">     51.82390177 </i>
    <varray name="rec_basis" >
     <v>       0.40445449       0.23351191      -0.00000000 </v>
     <v>       0.00000000       0.46702382      -0.00000000 </v>
     <v>      -0.00000000       0.00000000       0.10215537 </v>
    </varray>
   </crystal>
   <varray name="positions" >
    <v>       0.00000000       0.00000000       0.00000000 </v>
    <v>       0.33333333       0.66666667       0.99980875 </v>
   </varray>
  </structure>
  <varray name="forces" >
   <v>      -0.00000000      -0.00000000      -0.03228955 </v>
   <v>       0.00000000       0.00000000       0.03228955 </v>
  </varray>
  <varray name="stress" >
   <v>      -1.20705117       0.00000000      -0.00000000 </v>
   <v>       0.00000000      -1.20705117       0.00000000 </v>
   <v>      -0.00000000       0.00000000      -2.25622863 </v>
  </varray>
  <energy>
   <i name="e_fr_energy">    -18.39396249 </i>
   <i name="e_wo_entrp">    -18.39117636 </i>
   <i name="e_0_energy">    -18.39303378 </i>
  </energy>
  <time name="totalsc">    0.44    0.44</time>
 </calculation>
 <calculation>
  <scstep>
   <time name="dav">    0.05    0.05</time>
   <time name="total">    0.06    0.06</time>
   <energy>
    <i name="alphaZ">      3.69690137 </i>
    <i name="ewald">    356.35642140 </i>
    <i name="hartreedc">   -619.37397943 </i>
    <i name="XCdc">     28.73337175 </i>
    <i name="pawpsdc">   3151.46077869 </i>
    <i name="pawaedc">  -3153.53931615 </i>
    <i name="eentropy">     -0.00278612 </i>
    <i name="bandstr">    -80.02821442 </i>
    <i name="atom">    294.30283995 </i>
    <i name="e_fr_energy">    -18.39398297 </i>
    <i name="e_wo_entrp">    -18.39119685 </i>
    <i name="e_0_energy">    -18.39305426 </i>
   </energy>
  </scstep>
  <scstep>
   <time name="dav">    0.06    0.06</time>
   <time name="total">    0.07    0.07</time>
   <energy>
    <i name="alphaZ">      3.69690137 </i>
    <i name="ewald">    356.35642140 </i>
    <i name="hartreedc">   -619.39512431 </i>
    <i name="XCdc">     28.73433178 </i>
    <i name="pawpsdc">   3152.05476599 </i>
    <i name="pawaedc">  -3154.13348319 </i>
    <i name="eentropy">     -0.00278612 </i>
    <i name="bandstr">    -80.00785076 </i>
    <i name="atom">    294.30283995 </i>
    <i name="e_fr_energy">    -18.39398390 </i>
    <i name="e_wo_entrp">    -18.39119778 </i>
    <i name="e_0_energy">    -18.39305520 </i>
   </energy>
  </scstep>
  <structure>
   <crystal>
    <varray name="basis" >
     <v>       2.47206521      -0.00000000       0.00000000 </v>
     <v>      -1.23603261       2.14087127      -0.00000000 </v>
     <v>       0.00000000       0.00000000       9.79177915 </v>
    </varray>
    <i name="volume">     51.82175152 </i>
    <varray name="rec_basis" >
     <v>       0.40452007       0.23354977      -0.00000000 </v>
     <v>       0.00000000       0.46709955      -0.00000000 </v>
     <v>      -0.00000000       0.00000000       0.10212649 </v>
    </varray>
   </crystal>
   <varray name="positions" >
    <v>       0.00000000       0.00000000       0.00000000 </v>
    <v>       0.33333333       0.66666667       0.99988032 </v>
   </varray>
  </structure>
  <varray name="forces" >
   <v>      -0.00000000      -0.00000000      -0.01988642 </v>
   <v>       0.00000000       0.00000000       0.01988642 </v>
  </varray>
  <varray name="stress" >
   <v>      -0.61047558       0.00000000      -0.00000000 </v>
   <v>       0.00000000      -0.61047558      -0.00000000 </v>
   <v>      -0.00000000       0.00000000      -1.17456092 </v>
  </varray>
  <energy>
   <i name="e_fr_energy">    -18.39398390 </i>
   <i name="e_wo_entrp">    -18.39119778 </i>
   <i name="e_0_energy">    -18.39305520 </i>
  </energy>
  <time name="totalsc">    0.20    0.20</time>
  <eigenvalues>
   <array>
    <dimension dim="1">band</dimension>
    <dimension dim="2">kpoint</dimension>
    <dimension dim="3">spin</dimension>
    <field>eigene</field>
    <field>occ</field>
    <set>
     <set comment="spin 1">
      <set comment="kpoint 1">
       <r>  -20.3494    1.0000 </r>
       <r>   -8.4568    1.0000 </r>
       <r>   -3.9171    1.0000 </r>
       <r>   -3.9171    1.0000 </r>
       <r>    2.3168   -0.0000 </r>
       <r>    3.9581    0.0000 </r>
       <r>    5.3557    0.0000 </r>
       <r>    7.3840    0.0000 </r>
      </set>
      <set comment="kpoint 2">
       <r>  -20.0594    1.0000 </r>
       <r>   -8.1109    1.0000 </r>
       <r>   -5.0333    1.0000 </r>
       <r>   -4.4881    1.0000 </r>
       <r>    2.7116   -0.0000 </r>
       <r>    4.3483    0.0000 </r>
       <r>    5.7435    0.0000 </r>
       <r>    7.4718    0.0000 </r>
      </set>
      <set comment="kpoint 3">
       <r>  -19.1953    1.0000 </r>
       <r>   -7.5788    1.0000 </r>
       <r>   -7.0916    1.0000 </r>
       <r>   -5.6391    1.0000 </r>
       <r>    3.8948    0.0000 </r>
       <r>    5.4999    0.0000 </r>
       <r>    6.8647    0.0000 </r>
       <r>    7.0614    0.0000 </r>
      </set>
      <set comment="kpoint 4">
       <r>  -17.7780    1.0000 </r>
       <r>  -10.4997    1.0000 </r>
       <r>   -6.6557    1.0000 </r>
       <r>   -5.4795    1.0000 </r>
       <r>    3.9940    0.0000 </r>
       <r>    5.8522    0.0000 </r>
       <r>    6.7865    0.0000 </r>
       <r>    7.4744    0.0000 </r>
      </set>
      <set comment="kpoint 5">
       <r>  -15.8860    1.0000 </r>
       <r>  -13.2293    1.0000 </r>
       <r>   -7.2171    1.0000 </r>
       <r>   -3.6532    1.0000 </r>
       <r>    1.3273   -0.0000 </r>
       <r>    6.4853    0.0000 </r>
       <r>    8.6002    0.0000 </r>
       <r>   10.1008    0.0000 </r>
      </set>
      <set comment="kpoint 6">
       <r>  -19.4824    1.0000 </r>
       <r>   -7.4276    1.0000 </r>
       <r>   -6.5898    1.0000 </r>
       <r>   -5.6280    1.0000 </r>
       <r>    3.5013    0.0000 </r>
       <r>    5.1246    0.0000 </r>
       <r>    6.5222    0.0000 </r>
       <r>    7.8266    0.0000 </r>
      </set>
      <set comment="kpoint 7">
       <r>  -18.3414    1.0000 </r>
       <r>   -9.0335    1.0000 </r>
       <r>   -7.0065    1.0000 </r>
       <r>   -6.1021    1.0000 </r>
       <r>    5.0765    0.0000 </r>
       <r>    5.2320    0.0000 </r>
       <r>    6.6739    0.0000 </r>
       <r>    7.9872    0.0000 </r>
      </set>
      <set comment="kpoint 8">
       <r>  -16.6750    1.0000 </r>
       <r>  -11.7810    1.0000 </r>
       <r>   -7.8843    1.0000 </r>
       <r>   -4.2903    1.0000 </r>
       <r>    2.4170   -0.0000 </r>
       <r>    7.4046    0.0000 </r>
       <r>    7.8560    0.0000 </r>
       <r>    8.9100    0.0000 </r>
      </set>
      <set comment="kpoint 9">
       <r>  -14.9537    1.0000 </r>
       <r>  -13.9020    1.0000 </r>
       <r>   -8.1832    1.0000 </r>
       <r>   -2.9683    1.0000 </r>
       <r>    0.7136   -0.0000 </r>
       <r>    7.6797    0.0000 </r>
       <r>   10.4096    0.0000 </r>
       <r>   10.5732    0.0000 </r>
      </set>
      <set comment="kpoint 10">
       <r>  -16.9485    1.0000 </r>
       <r>  -10.5506    1.0000 </r>
       <r>   -9.0063    1.0000 </r>
       <r>   -4.5333    1.0000 </r>
       <r>    3.0324   -0.0000 </r>
       <r>    7.0339    0.0000 </r>
       <r>    8.4450    0.0000 </r>
       <r>    9.9841    0.0000 </r>
      </set>
      <set comment="kpoint 11">
       <r>  -15.1110    1.0000 </r>
       <r>  -12.6508    1.0000 </r>
       <r>  -10.0031    1.0000 </r>
       <r>   -2.6743    1.0000 </r>
       <r>    0.8157   -0.0000 </r>
       <r>    9.7020    0.0000 </r>
       <r>   10.1061    0.0000 </r>
       <r>   10.5431    0.0000 </r>
      </set>
      <set comment="kpoint 12">
       <r>  -13.4644    1.0000 </r>
       <r>  -13.4644    1.0000 </r>
       <r>  -11.3982    1.0000 </r>
       <r>   -0.8856    0.5002 </r>
       <r>   -0.8855    0.4998 </r>
       <r>    9.7537    0.0000 </r>
       <r>   11.9369    0.0000 </r>
       <r>   11.9369    0.0000 </r>
      </set>
     </set>
    </set>
   </array>
  </eigenvalues>
  <separator name="orbital magnetization" >
   <v name="MAGDIPOLOUT">      0.00000000      0.00000000      0.00000000</v>
  </separator>
  <dos>
   <i name="efermi">     -0.88557983 </i>
   <total>
    <array>
     <dimension dim="1">gridpoints</dimension>
     <dimension dim="2">spin</dimension>
     <field>energy</field>
     <field>total</field>
     <field>integrated</field>
     <set>
      <set comment="spin 1">
       <r>   -22.3494     0.0000     0.0000 </r>
       <r>   -22.2285     0.0000     0.0000 </r>
       <r>   -22.1075     0.0000     0.0000 </r>
       <r>   -21.9866    -0.0000    -0.0000 </r>
       <r>   -21.8656    -0.0000    -0.0000 </r>
       <r>   -21.7447    -0.0000    -0.0000 </r>
       <r>   -21.6237    -0.0000    -0.0000 </r>
       <r>   -21.5028    -0.0000    -0.0000 </r>
       <r>   -21.3818    -0.0000    -0.0000 </r>
       <r>   -21.2608    -0.0000    -0.0000 </r>
       <r>   -21.1399    -0.0000    -0.0000 </r>
       <r>   -21.0189    -0.0000    -0.0000 </r>
       <r>   -20.8980    -0.0001    -0.0000 </r>
       <r>   -20.7770    -0.0009    -0.0001 </r>
       <r>   -20.6561    -0.0044    -0.0007 </r>
       <r>   -20.5351    -0.0002    -0.0007 </r>
       <r>   -20.4142     0.0360     0.0037 </r>
       <r>   -20.2932     0.0754     0.0128 </r>
       <r>   -20.1723     0.2186     0.0392 </r>
       <r>   -20.0513     0.5397     0.1045 </r>
       <r>   -19.9303     0.4876     0.1635 </r>
       <r>   -19.8094     0.0943     0.1749 </r>
       <r>   -19.6884    -0.0378     0.1703 </r>
       <r>   -19.5675     0.2200     0.1969 </r>
       <r>   -19.4465     0.5525     0.2638 </r>
       <r>   -19.3256     0.5270     0.3275 </r>
       <r>   -19.2046     0.5495     0.3940 </r>
       <r>   -19.0837     0.5092     0.4556 </r>
       <r>   -18.9627     0.1555     0.4744 </r>
       <r>   -18.8418    -0.0270     0.4711 </r>
       <r>   -18.7208    -0.0409     0.4662 </r>
       <r>   -18.5998    -0.0607     0.4588 </r>
       <r>   -18.4789     0.1945     0.4824 </r>
       <r>   -18.3579     0.9448     0.5966 </r>
       <r>   -18.2370     1.1033     0.7301 </r>
       <r>   -18.1160     0.3519     0.7726 </r>
       <r>   -17.9951    -0.0565     0.7658 </r>
       <r>   -17.8741     0.1750     0.7870 </r>
       <r>   -17.7532     0.5622     0.8550 </r>
       <r>   -17.6322     0.4473     0.9091 </r>
       <r>   -17.5113     0.0785     0.9186 </r>
       <r>   -17.3903    -0.0340     0.9144 </r>
       <r>   -17.2693    -0.0343     0.9103 </r>
       <r>   -17.1484    -0.0086     0.9093 </r>
       <r>   -17.0274     0.2331     0.9375 </r>
       <r>   -16.9065     0.5424     1.0031 </r>
       <r>   -16.7855     0.7280     1.0911 </r>
       <r>   -16.6646     1.1276     1.2275 </r>
       <r>   -16.5436     0.9506     1.3425 </r>
       <r>   -16.4227     0.2149     1.3685 </r>
       <r>   -16.3017    -0.0646     1.3607 </r>
       <r>   -16.1808    -0.0540     1.3541 </r>
       <r>   -16.0598     0.0253     1.3572 </r>
       <r>   -15.9388     0.3557     1.4002 </r>
       <r>   -15.8179     0.5949     1.4722 </r>
       <r>   -15.6969     0.3033     1.5089 </r>
       <r>   -15.5760     0.0027     1.5092 </r>
       <r>   -15.4550    -0.0640     1.5015 </r>
       <r>   -15.3341    -0.0555     1.4947 </r>
       <r>   -15.2131     0.3562     1.5378 </r>
       <r>   -15.0922     1.2101     1.6842 </r>
       <r>   -14.9712     1.4008     1.8536 </r>
       <r>   -14.8503     0.7389     1.9430 </r>
       <r>   -14.7293     0.1301     1.9587 </r>
       <r>   -14.6083    -0.0432     1.9535 </r>
       <r>   -14.4874    -0.0211     1.9510 </r>
       <r>   -14.3664    -0.0057     1.9503 </r>
       <r>   -14.2455    -0.0189     1.9480 </r>
       <r>   -14.1245    -0.0189     1.9457 </r>
       <r>   -14.0036     0.1941     1.9692 </r>
       <r>   -13.8826     0.5540     2.0362 </r>
       <r>   -13.7617     0.4452     2.0900 </r>
       <r>   -13.6407     0.0998     2.1021 </r>
       <r>   -13.5198     0.1738     2.1231 </r>
       <r>   -13.3988     0.4203     2.1740 </r>
       <r>   -13.2778     0.5771     2.2438 </r>
       <r>   -13.1569     0.5981     2.3161 </r>
       <r>   -13.0359     0.2498     2.3463 </r>
       <r>   -12.9150    -0.0590     2.3392 </r>
       <r>   -12.7940     0.1439     2.3566 </r>
       <r>   -12.6731     0.9060     2.4662 </r>
       <r>   -12.5521     1.1265     2.6024 </r>
       <r>   -12.4312     0.4066     2.6516 </r>
       <r>   -12.3102    -0.0360     2.6473 </r>
       <r>   -12.1893    -0.0544     2.6407 </r>
       <r>   -12.0683    -0.0633     2.6330 </r>
       <r>   -11.9473     0.0796     2.6426 </r>
       <r>   -11.8264     0.7603     2.7346 </r>
       <r>   -11.7054     1.1734     2.8765 </r>
       <r>   -11.5845     0.5606     2.9443 </r>
       <r>   -11.4635     0.1054     2.9571 </r>
       <r>   -11.3426     0.1507     2.9753 </r>
       <r>   -11.2216     0.1060     2.9881 </r>
       <r>   -11.1007     0.0069     2.9890 </r>
       <r>   -10.9797    -0.0167     2.9870 </r>
       <r>   -10.8588    -0.0436     2.9817 </r>
       <r>   -10.7378    -0.0148     2.9799 </r>
       <r>   -10.6168     0.4591     3.0354 </r>
       <r>   -10.4959     1.1185     3.1707 </r>
       <r>   -10.3749     0.8301     3.2711 </r>
       <r>   -10.2540     0.0978     3.2829 </r>
       <r>   -10.1330     0.1762     3.3043 </r>
       <r>   -10.0121     0.9665     3.4212 </r>
       <r>    -9.8911     1.0734     3.5510 </r>
       <r>    -9.7702     0.3273     3.5906 </r>
       <r>    -9.6492    -0.0473     3.5849 </r>
       <r>    -9.5283    -0.0373     3.5803 </r>
       <r>    -9.4073    -0.0394     3.5756 </r>
       <r>    -9.2863    -0.0866     3.5651 </r>
       <r>    -9.1654     0.2738     3.5982 </r>
       <r>    -9.0444     1.3818     3.7654 </r>
       <r>    -8.9235     1.6685     3.9672 </r>
       <r>    -8.8025     0.5899     4.0385 </r>
       <r>    -8.6816    -0.0567     4.0317 </r>
       <r>    -8.5606    -0.0416     4.0266 </r>
       <r>    -8.4397     0.0320     4.0305 </r>
       <r>    -8.3187     0.1603     4.0499 </r>
       <r>    -8.1978     0.6856     4.1328 </r>
       <r>    -8.0768     1.1328     4.2698 </r>
       <r>    -7.9558     1.1671     4.4110 </r>
       <r>    -7.8349     1.1884     4.5547 </r>
       <r>    -7.7139     0.7603     4.6467 </r>
       <r>    -7.5930     0.5618     4.7147 </r>
       <r>    -7.4720     0.8292     4.8149 </r>
       <r>    -7.3511     0.7938     4.9110 </r>
       <r>    -7.2301     0.7908     5.0066 </r>
       <r>    -7.1092     1.3751     5.1729 </r>
       <r>    -6.9882     1.7870     5.3891 </r>
       <r>    -6.8673     1.0557     5.5168 </r>
       <r>    -6.7463     0.4352     5.5694 </r>
       <r>    -6.6253     0.9080     5.6792 </r>
       <r>    -6.5044     0.9687     5.7964 </r>
       <r>    -6.3834     0.2521     5.8269 </r>
       <r>    -6.2625     0.0623     5.8344 </r>
       <r>    -6.1415     0.7673     5.9272 </r>
       <r>    -6.0206     1.1452     6.0658 </r>
       <r>    -5.8996     0.4516     6.1204 </r>
       <r>    -5.7787     0.1241     6.1354 </r>
       <r>    -5.6577     0.8750     6.2412 </r>
       <r>    -5.5368     1.4628     6.4182 </r>
       <r>    -5.4158     1.0029     6.5395 </r>
       <r>    -5.2948     0.2576     6.5706 </r>
       <r>    -5.1739     0.0643     6.5784 </r>
       <r>    -5.0529     0.4296     6.6304 </r>
       <r>    -4.9320     0.5395     6.6956 </r>
       <r>    -4.8110     0.1410     6.7127 </r>
       <r>    -4.6901     0.0157     6.7146 </r>
       <r>    -4.5691     0.5955     6.7866 </r>
       <r>    -4.4482     1.2753     6.9408 </r>
       <r>    -4.3272     1.4610     7.1176 </r>
       <r>    -4.2063     1.1986     7.2625 </r>
       <r>    -4.0853     0.4566     7.3178 </r>
       <r>    -3.9644     0.0731     7.3266 </r>
       <r>    -3.8434     0.1589     7.3458 </r>
       <r>    -3.7224     0.3866     7.3926 </r>
       <r>    -3.6015     0.5947     7.4645 </r>
       <r>    -3.4805     0.3506     7.5069 </r>
       <r>    -3.3596     0.0183     7.5091 </r>
       <r>    -3.2386    -0.0582     7.5021 </r>
       <r>    -3.1177     0.0557     7.5088 </r>
       <r>    -2.9967     0.3898     7.5560 </r>
       <r>    -2.8758     0.5648     7.6243 </r>
       <r>    -2.7548     0.7469     7.7146 </r>
       <r>    -2.6339     1.1607     7.8550 </r>
       <r>    -2.5129     0.7740     7.9486 </r>
       <r>    -2.3919     0.0933     7.9599 </r>
       <r>    -2.2710    -0.0584     7.9529 </r>
       <r>    -2.1500    -0.0169     7.9508 </r>
       <r>    -2.0291    -0.0016     7.9506 </r>
       <r>    -1.9081    -0.0001     7.9506 </r>
       <r>    -1.7872    -0.0000     7.9506 </r>
       <r>    -1.6662    -0.0000     7.9506 </r>
       <r>    -1.5453    -0.0000     7.9506 </r>
       <r>    -1.4243    -0.0004     7.9506 </r>
       <r>    -1.3034    -0.0045     7.9500 </r>
       <r>    -1.1824    -0.0183     7.9478 </r>
       <r>    -1.0614     0.0169     7.9499 </r>
       <r>    -0.9405     0.2325     7.9780 </r>
       <r>    -0.8195     0.3970     8.0260 </r>
       <r>    -0.6986     0.2072     8.0511 </r>
       <r>    -0.5776     0.0072     8.0519 </r>
       <r>    -0.4567    -0.0171     8.0499 </r>
       <r>    -0.3357    -0.0037     8.0494 </r>
       <r>    -0.2148    -0.0003     8.0494 </r>
       <r>    -0.0938    -0.0000     8.0494 </r>
       <r>     0.0271    -0.0000     8.0494 </r>
       <r>     0.1481    -0.0003     8.0493 </r>
       <r>     0.2691    -0.0051     8.0487 </r>
       <r>     0.3900    -0.0345     8.0446 </r>
       <r>     0.5110    -0.0576     8.0376 </r>
       <r>     0.6319     0.2876     8.0724 </r>
       <r>     0.7529     1.2290     8.2210 </r>
       <r>     0.8738     1.5899     8.4133 </r>
       <r>     0.9948     0.7053     8.4986 </r>
       <r>     1.1157     0.0005     8.4987 </r>
       <r>     1.2367     0.1662     8.5188 </r>
       <r>     1.3576     0.5621     8.5868 </r>
       <r>     1.4786     0.4293     8.6387 </r>
       <r>     1.5996     0.0674     8.6469 </r>
       <r>     1.7205    -0.0297     8.6433 </r>
       <r>     1.8415    -0.0107     8.6420 </r>
       <r>     1.9624    -0.0107     8.6407 </r>
       <r>     2.0834    -0.0456     8.6352 </r>
       <r>     2.2043    -0.0000     8.6352 </r>
       <r>     2.3253     0.5291     8.6992 </r>
       <r>     2.4462     1.2010     8.8445 </r>
       <r>     2.5672     0.9661     8.9613 </r>
       <r>     2.6881     0.5678     9.0300 </r>
       <r>     2.8091     0.4846     9.0886 </r>
       <r>     2.9301     0.3788     9.1344 </r>
       <r>     3.0510     0.5348     9.1991 </r>
       <r>     3.1720     0.4249     9.2505 </r>
       <r>     3.2929     0.0794     9.2601 </r>
       <r>     3.4139     0.2074     9.2852 </r>
       <r>     3.5348     0.5483     9.3515 </r>
       <r>     3.6558     0.3689     9.3961 </r>
       <r>     3.7767     0.1945     9.4197 </r>
       <r>     3.8977     0.7565     9.5112 </r>
       <r>     4.0186     1.1455     9.6497 </r>
       <r>     4.1396     0.6231     9.7251 </r>
       <r>     4.2606     0.2931     9.7606 </r>
       <r>     4.3815     0.5308     9.8248 </r>
       <r>     4.5025     0.4071     9.8740 </r>
       <r>     4.6234     0.0519     9.8803 </r>
       <r>     4.7444    -0.0872     9.8697 </r>
       <r>     4.8653    -0.0913     9.8587 </r>
       <r>     4.9863     0.4973     9.9188 </r>
       <r>     5.1072     1.8650    10.1444 </r>
       <r>     5.2282     2.4168    10.4367 </r>
       <r>     5.3491     1.5149    10.6200 </r>
       <r>     5.4701     0.6989    10.7045 </r>
       <r>     5.5911     0.5482    10.7708 </r>
       <r>     5.7120     0.7046    10.8560 </r>
       <r>     5.8330     1.0221    10.9797 </r>
       <r>     5.9539     0.7685    11.0726 </r>
       <r>     6.0749     0.1674    11.0929 </r>
       <r>     6.1958    -0.0955    11.0813 </r>
       <r>     6.3168    -0.0286    11.0779 </r>
       <r>     6.4377     0.5465    11.1439 </r>
       <r>     6.5587     1.4337    11.3174 </r>
       <r>     6.6796     1.9215    11.5498 </r>
       <r>     6.8006     1.8754    11.7766 </r>
       <r>     6.9216     1.5178    11.9602 </r>
       <r>     7.0425     1.3341    12.1216 </r>
       <r>     7.1635     0.9100    12.2316 </r>
       <r>     7.2844     0.5890    12.3029 </r>
       <r>     7.4054     1.6427    12.5016 </r>
       <r>     7.5263     2.2509    12.7738 </r>
       <r>     7.6473     1.3772    12.9404 </r>
       <r>     7.7682     1.3554    13.1043 </r>
       <r>     7.8892     2.3142    13.3842 </r>
       <r>     8.0101     2.2602    13.6576 </r>
       <r>     8.1311     0.9951    13.7780 </r>
       <r>     8.2521     0.0629    13.7856 </r>
       <r>     8.3730     0.1840    13.8078 </r>
       <r>     8.4940     0.7357    13.8968 </r>
       <r>     8.6149     0.8610    14.0010 </r>
       <r>     8.7359     0.5675    14.0696 </r>
       <r>     8.8568     0.7825    14.1643 </r>
       <r>     8.9778     1.1536    14.3038 </r>
       <r>     9.0987     0.5964    14.3759 </r>
       <r>     9.2197     0.0120    14.3774 </r>
       <r>     9.3406    -0.0838    14.3673 </r>
       <r>     9.4616    -0.0730    14.3584 </r>
       <r>     9.5826     0.2843    14.3928 </r>
       <r>     9.7035     1.1073    14.5267 </r>
       <r>     9.8245     1.1883    14.6705 </r>
       <r>     9.9454     0.9267    14.7826 </r>
       <r>    10.0664     1.7261    14.9913 </r>
       <r>    10.1873     1.9096    15.2223 </r>
       <r>    10.3083     0.8674    15.3272 </r>
       <r>    10.4292     0.9164    15.4381 </r>
       <r>    10.5502     1.9121    15.6693 </r>
       <r>    10.6711     1.6403    15.8677 </r>
       <r>    10.7921     0.4161    15.9181 </r>
       <r>    10.9131    -0.0843    15.9079 </r>
       <r>    11.0340    -0.0482    15.9021 </r>
       <r>    11.1550    -0.0064    15.9013 </r>
       <r>    11.2759    -0.0004    15.9012 </r>
       <r>    11.3969    -0.0004    15.9012 </r>
       <r>    11.5178    -0.0044    15.9007 </r>
       <r>    11.6388    -0.0182    15.8985 </r>
       <r>    11.7597     0.0157    15.9004 </r>
       <r>    11.8807     0.2295    15.9281 </r>
       <r>    12.0016     0.3972    15.9762 </r>
       <r>    12.1226     0.2101    16.0016 </r>
       <r>    12.2436     0.0083    16.0026 </r>
       <r>    12.3645    -0.0173    16.0005 </r>
       <r>    12.4855    -0.0038    16.0000 </r>
       <r>    12.6064    -0.0003    16.0000 </r>
       <r>    12.7274    -0.0000    16.0000 </r>
       <r>    12.8483    -0.0000    16.0000 </r>
       <r>    12.9693    -0.0000    16.0000 </r>
       <r>    13.0902    -0.0000    16.0000 </r>
       <r>    13.2112    -0.0000    16.0000 </r>
       <r>    13.3321     0.0000    16.0000 </r>
       <r>    13.4531     0.0000    16.0000 </r>
       <r>    13.5741     0.0000    16.0000 </r>
       <r>    13.6950     0.0000    16.0000 </r>
       <r>    13.8160     0.0000    16.0000 </r>
       <r>    13.9369     0.0000    16.0000 </r>
      </set>
     </set>
    </array>
   </total>
  </dos>
 </calculation>
 <structure name="finalpos" >
  <crystal>
   <varray name="basis" >
    <v>       2.47206521      -0.00000000       0.00000000 </v>
    <v>      -1.23603261       2.14087127      -0.00000000 </v>
    <v>       0.00000000       0.00000000       9.79177915 </v>
   </varray>
   <i name="volume">     51.82175152 </i>
   <varray name="rec_basis" >
    <v>       0.40452007       0.23354977      -0.00000000 </v>
    <v>       0.00000000       0.46709955      -0.00000000 </v>
    <v>      -0.00000000       0.00000000       0.10212649 </v>
   </varray>
  </crystal>
  <varray name="positions" >
   <v>       0.00000000       0.00000000       0.00000000 </v>
   <v>       0.33333333       0.66666667       0.99988032 </v>
  </varray>
  <varray name="selective"  type="logical" >
   <v type="logical" >  F  F  F </v>
   <v type="logical" >  F  F  T </v>
  </varray>
  <nose>
   <v>      -3.00000000       0.00000000       0.00010000       0.00010000 </v>
  </nose>
 </structure>
</modeling>
