unknown system                          
           1
     2.441046    0.000000    0.000000
    -1.220523    2.114008    0.000000
     0.000000    0.000000   10.000000
   C 
     2
Direct configuration=     1
   0.00000000  0.00000000  0.00000000
   0.33333333  0.66666667  0.02000000
unknown system                          
           1
     2.538508   -0.000000    0.000000
    -1.269254    2.198413   -0.000000
     0.000000    0.000000    9.822843
   C 
     2
Direct configuration=     2
   0.00000000  0.00000000  0.00000000
   0.33333333  0.66666667  0.00382315
unknown system                          
           1
     2.517942   -0.000000    0.000000
    -1.258971    2.180602   -0.000000
     0.000000    0.000000    9.860226
   C 
     2
Direct configuration=     3
   0.00000000  0.00000000  0.00000000
   0.33333333  0.66666667  0.00729825
unknown system                          
           1
     2.425767    0.000000    0.000000
    -1.212884    2.100776   -0.000000
     0.000000    0.000000    9.753309
   C 
     2
Direct configuration=     4
   0.00000000  0.00000000  0.00000000
   0.33333333  0.66666667  0.99349145
unknown system                          
           1
     2.470664   -0.000000    0.000000
    -1.235332    2.139658   -0.000000
     0.000000    0.000000    9.805386
   C 
     2
Direct configuration=     5
   0.00000000  0.00000000  0.00000000
   0.33333333  0.66666667  0.00029017
unknown system                          
           1
     2.470255   -0.000000    0.000000
    -1.235128    2.139304   -0.000000
     0.000000    0.000000    9.804912
   C 
     2
Direct configuration=     6
   0.00000000  0.00000000  0.00000000
   0.33333333  0.66666667  0.00022865
unknown system                          
           1
     2.470121   -0.000000    0.000000
    -1.235060    2.139187   -0.000000
     0.000000    0.000000    9.804756
   C 
     2
Direct configuration=     7
   0.00000000  0.00000000  0.00000000
   0.33333333  0.66666667  0.00020835
unknown system                          
           1
     2.470159   -0.000000    0.000000
    -1.235080    2.139221   -0.000000
     0.000000    0.000000    9.804801
   C 
     2
Direct configuration=     8
   0.00000000  0.00000000  0.00000000
   0.33333333  0.66666667  0.00021419
unknown system                          
           1
     2.470177   -0.000000    0.000000
    -1.235088    2.139236   -0.000000
     0.000000    0.000000    9.804821
   C 
     2
Direct configuration=     9
   0.00000000  0.00000000  0.00000000
   0.33333333  0.66666667  0.00021684
unknown system                          
           1
     2.472466   -0.000000    0.000000
    -1.236233    2.141218   -0.000000
     0.000000    0.000000    9.789011
   C 
     2
Direct configuration=    10
   0.00000000  0.00000000  0.00000000
   0.33333333  0.66666667  0.99980875
unknown system                          
           1
     2.472065   -0.000000    0.000000
    -1.236033    2.140871   -0.000000
     0.000000    0.000000    9.791779
   C 
     2
Direct configuration=    11
   0.00000000  0.00000000  0.00000000
   0.33333333  0.66666667  0.99988032
