<preamble>

<basis_specs>
===============================================================================
Fe                   Z=  26    Mass=  55.845        Charge= 0.17977+309
Lmxo=2 Lmxkb= 2    BasisType=split      Semic=T
L=0  Nsemic=1  Cnfigmx=4
          i=1  nzeta=1  polorb=0  (3s)  (semicore shell)
            splnorm:   0.15000    
               vcte:    40.000    
               rinn:    2.3247    
               qcoe:    0.0000    
               qyuk:    0.0000    
               qwid:   0.10000E-01
                rcs:    2.5830    
            lambdas:    1.0000    
          i=2  nzeta=2  polorb=0  (4s)  (to be polarized non-perturbatively)
            splnorm:   0.15000    
               vcte:    40.000    
               rinn:    6.6600    
               qcoe:    0.0000    
               qyuk:    0.0000    
               qwid:   0.10000E-01
                rcs:    7.4000      5.0981    
            lambdas:    1.0000      1.0000    
L=1  Nsemic=1  Cnfigmx=4
          i=1  nzeta=1  polorb=0  (3p)  (semicore shell)
            splnorm:   0.15000    
               vcte:    40.000    
               rinn:    2.6013    
               qcoe:    0.0000    
               qyuk:    0.0000    
               qwid:   0.10000E-01
                rcs:    2.8903    
            lambdas:    1.0000    
          i=2  nzeta=1  polorb=0  (4p)  (non-perturbative polarization shell)
            splnorm:   0.15000    
               vcte:    40.000    
               rinn:    6.6667    
               qcoe:   0.13979+222
               qyuk:   0.25044-315
               qwid:   0.69526-309
                rcs:    7.4000    
            lambdas:    1.0000    
L=2  Nsemic=0  Cnfigmx=3
          i=1  nzeta=2  polorb=0  (3d)
            splnorm:   0.15000    
               vcte:    40.000    
               rinn:    4.2561    
               qcoe:    0.0000    
               qyuk:    0.0000    
               qwid:   0.10000E-01
                rcs:    4.7243      2.7406    
            lambdas:    1.0000      1.0000    
-------------------------------------------------------------------------------
L=0  Nkbl=2  erefs: 0.17977+309 0.17977+309
L=1  Nkbl=2  erefs: 0.17977+309 0.17977+309
L=2  Nkbl=1  erefs: 0.17977+309
===============================================================================
</basis_specs>

<pseudopotential_header>
 Fe pb nrl pcec
 ONCVPSP-3.2017-10-31Hamann's oncvpsp                        
 3s 2.00  r= 1.26/3p 6.00  r= 1.21/3d 6.00  r= 1.57/                    3s:3p:3d:4s:
</pseudopotential_header>
</preamble>
Fe                            # Symbol
Fe                            # Label
   26                         # Atomic number
     16.0000000000                             # Valence charge
     55.8450000000        # Mass 
     361.806439435        # Self energy 
   2   7                      # Lmax for basis, no. of nl orbitals 
   2   6                      # Lmax for projectors, no. of nl KB projectors
# PAOs:__________________________
  0  3  1  0  2.000000   #orbital l, n, z, is_polarized, population
 500    0.5176427053100606E-02     2.583037099497203     # npts, delta, cutoff
     0.000000000000000         2.164709303391984    
    0.5176427053100606E-02     2.164657601042036    
    0.1035285410620121E-01     2.164675166989503    
    0.1552928115930182E-01     2.164704374453482    
    0.2070570821240243E-01     2.164744980512285    
    0.2588213526550303E-01     2.164796678848728    
    0.3105856231860364E-01     2.164859081477091    
    0.3623498937170425E-01     2.164931716491944    
    0.4141141642480485E-01     2.165014027897564    
    0.4658784347790546E-01     2.165105375968516    
    0.5176427053100606E-01     2.165205037831075    
    0.5694069758410667E-01     2.165312208180343    
    0.6211712463720728E-01     2.165426000104223    
    0.6729355169030789E-01     2.165545446002599    
    0.7246997874340849E-01     2.165669498596230    
    0.7764640579650910E-01     2.165797032022227    
    0.8282283284960970E-01     2.165926843014015    
    0.8799925990271031E-01     2.166057652164050    
    0.9317568695581091E-01     2.166188105267834    
    0.9835211400891151E-01     2.166316774747746    
    0.1035285410620121         2.166442161155210    
    0.1087049681151127         2.166562694749757    
    0.1138813951682133         2.166676737153349    
    0.1190578222213139         2.166782583078459    
    0.1242342492744146         2.166878462128159    
    0.1294106763275152         2.166962540666486    
    0.1345871033806158         2.167032923757313    
    0.1397635304337164         2.167087657169803    
    0.1449399574868170         2.167124729448515    
    0.1501163845399176         2.167142074046173    
    0.1552928115930182         2.167137571516955    
    0.1604692386461188         2.167109051768208    
    0.1656456656992194         2.167054296368371    
    0.1708220927523200         2.166971040908797    
    0.1759985198054206         2.166856977417174    
    0.1811749468585212         2.166709756820131    
    0.1863513739116218         2.166526991452585    
    0.1915278009647224         2.166306257611299    
    0.1967042280178230         2.166045098150142    
    0.2018806550709236         2.165741025114351    
    0.2070570821240242         2.165391522411216    
    0.2122335091771249         2.164994048514423    
    0.2174099362302255         2.164546039199310    
    0.2225863632833261         2.164044910306274    
    0.2277627903364267         2.163488060529416    
    0.2329392173895273         2.162872874227621    
    0.2381156444426279         2.162196724255122    
    0.2432920714957285         2.161456974808618    
    0.2484684985488291         2.160650984287974    
    0.2536449256019297         2.159776108167510    
    0.2588213526550303         2.158829701874843    
    0.2639977797081309         2.157809123674267    
    0.2691742067612315         2.156711737551586    
    0.2743506338143321         2.155534916097373    
    0.2795270608674327         2.154276043385518    
    0.2847034879205333         2.152932517844038    
    0.2898799149736340         2.151501755115003    
    0.2950563420267346         2.149981190900558    
    0.3002327690798351         2.148368283791871    
    0.3054091961329358         2.146660518078031    
    0.3105856231860364         2.144855406531730    
    0.3157620502391370         2.142950493168756    
    0.3209384772922376         2.140943355978231    
    0.3261149043453382         2.138831609620589    
    0.3312913313984388         2.136612908090310    
    0.3364677584515394         2.134284947340492    
    0.3416441855046400         2.131845467866281    
    0.3468206125577406         2.129292257244350    
    0.3519970396108412         2.126623152625536    
    0.3571734666639418         2.123836043177876    
    0.3623498937170425         2.120928872477296    
    0.3675263207701430         2.117899640843251    
    0.3727027478232436         2.114746407616712    
    0.3778791748763443         2.111467293377895    
    0.3830556019294449         2.108060482101282    
    0.3882320289825455         2.104524223245449    
    0.3934084560356461         2.100856833775348    
    0.3985848830887467         2.097056700114793    
    0.4037613101418473         2.093122280026896    
    0.4089377371949479         2.089052104420359    
    0.4141141642480485         2.084844779079559    
    0.4192905913011491         2.080498986316509    
    0.4244670183542497         2.076013486542804    
    0.4296434454073503         2.071387119759832    
    0.4348198724604510         2.066618806965523    
    0.4399962995135515         2.061707551476144    
    0.4451727265666521         2.056652440161639    
    0.4503491536197528         2.051452644593194    
    0.4555255806728534         2.046107422101737    
    0.4607020077259540         2.040616116746291    
    0.4658784347790546         2.034978160191129    
    0.4710548618321552         2.029193072490853    
    0.4762312888852558         2.023260462782594    
    0.4814077159383564         2.017180029884639    
    0.4865841429914570         2.010951562801024    
    0.4917605700445576         2.004574941131537    
    0.4969369970976582         1.998050135386937    
    0.5021134241507588         1.991377207209162    
    0.5072898512038594         1.984556309496449    
    0.5124662782569600         1.977587686433444    
    0.5176427053100606         1.970471673426524    
    0.5228191323631612         1.963208696944592    
    0.5279955594162619         1.955799274265795    
    0.5331719864693625         1.948244013130753    
    0.5383484135224631         1.940543611302955    
    0.5435248405755637         1.932698856037124    
    0.5487012676286642         1.924710623456493    
    0.5538776946817648         1.916579877840033    
    0.5590541217348655         1.908307670820798    
    0.5642305487879661         1.899895140496660    
    0.5694069758410667         1.891343510454834    
    0.5745834028941673         1.882654099603823    
    0.5797598299472679         1.873828306239808    
    0.5849362570003686         1.864867585327929    
    0.5901126840534692         1.855773490995148    
    0.5952891111065697         1.846547656746618    
    0.6004655381596703         1.837191794005469    
    0.6056419652127709         1.827707690582170    
    0.6108183922658715         1.818097209072695    
    0.6159948193189722         1.808362285187840    
    0.6211712463720728         1.798504926016060    
    0.6263476734251734         1.788527208222304    
    0.6315241004782740         1.778431276185419    
    0.6367005275313746         1.768219340076788    
    0.6418769545844751         1.757893673882841    
    0.6470533816375758         1.747456613374245    
    0.6522298086906764         1.736910554024611    
    0.6574062357437770         1.726257948881581    
    0.6625826627968776         1.715501306393225    
    0.6677590898499782         1.704643188192740    
    0.6729355169030788         1.693686206844479    
    0.6781119439561795         1.682633023554343    
    0.6832883710092801         1.671486345847635    
    0.6884647980623806         1.660248925217493    
    0.6936412251154812         1.648923554747040    
    0.6988176521685818         1.637513066708367    
    0.7039940792216824         1.626020330141540    
    0.7091705062747831         1.614448248416781    
    0.7143469333278837         1.602799756782980    
    0.7195233603809843         1.591077819905700    
    0.7246997874340849         1.579285429397814    
    0.7298762144871855         1.567425601345896    
    0.7350526415402860         1.555501373835474    
    0.7402290685933867         1.543515804478247    
    0.7454054956464873         1.531471967944269    
    0.7505819226995879         1.519372953502142    
    0.7557583497526885         1.507221862570182    
    0.7609347768057891         1.495021806281471    
    0.7661112038588898         1.482775903065657    
    0.7712876309119904         1.470487276250349    
    0.7764640579650910         1.458159051684833    
    0.7816404850181915         1.445794355388808    
    0.7868169120712921         1.433396311228759    
    0.7919933391243927         1.420968038624539    
    0.7971697661774934         1.408512650288598    
    0.8023461932305940         1.396033250000269    
    0.8075226202836946         1.383532930417428    
    0.8126990473367952         1.371014770927744    
    0.8178754743898958         1.358481835541663    
    0.8230519014429964         1.345937170829109    
    0.8282283284960970         1.333383803901960    
    0.8334047555491976         1.320824740443999    
    0.8385811826022982         1.308262962790243    
    0.8437576096553988         1.295701428057134    
    0.8489340367084994         1.283143066325303    
    0.8541104637616000         1.270590778876160    
    0.8592868908147007         1.258047436483809    
    0.8644633178678013         1.245515877763349    
    0.8696397449209019         1.232998907576822    
    0.8748161719740025         1.220499295497661    
    0.8799925990271030         1.208019774334675    
    0.8851690260802036         1.195563038716191    
    0.8903454531333043         1.183131743735195    
    0.8955218801864049         1.170728503655847    
    0.9006983072395055         1.158355890682002    
    0.9058747342926061         1.146016433787896    
    0.9110511613457067         1.133712617611418    
    0.9162275883988074         1.121446881409878    
    0.9214040154519080         1.109221618078538    
    0.9265804425050085         1.097039173231551    
    0.9317568695581091         1.084901844345393    
    0.9369332966112097         1.072811879964241    
    0.9421097236643103         1.060771478967150    
    0.9472861507174110         1.048782789896344    
    0.9524625777705116         1.036847910346217    
    0.9576390048236122         1.024968886412247    
    0.9628154318767128         1.013147712199156    
    0.9679918589298134         1.001386329387473    
    0.9731682859829139        0.9896866268575191    
    0.9783447130360146        0.9780504403699302    
    0.9835211400891152        0.9664795523015099    
    0.9886975671422158        0.9549756914354511    
    0.9938739941953164        0.9435405328045411    
    0.9990504212484170        0.9321756975862325    
     1.004226848301518        0.9208827530481489    
     1.009403275354618        0.9096632125427034    
     1.014579702407719        0.8985185355494009    
     1.019756129460820        0.8874501277633023    
     1.024932556513920        0.8764593412281819    
     1.030108983567021        0.8655474745127720    
     1.035285410620121        0.8547157729285563    
     1.040461837673222        0.8439654287874834    
     1.045638264726322        0.8332975816979156    
     1.050814691779423        0.8227133188971686    
     1.055991118832524        0.8122136756190063    
     1.061167545885624        0.8017996354942858    
     1.066343972938725        0.7914721309832131    
     1.071520399991825        0.7812320438373443    
     1.076696827044926        0.7710802055897470    
     1.081873254098027        0.7610173980716005    
     1.087049681151127        0.7510443539534212    
     1.092226108204228        0.7411617573095003    
     1.097402535257328        0.7313702442035712    
     1.102578962310429        0.7216704032943252    
     1.107755389363530        0.7120627764590820    
     1.112931816416630        0.7025478594338961    
     1.118108243469731        0.6931261024688529    
     1.123284670522832        0.6837979109966459    
     1.128461097575932        0.6745636463132214    
     1.133637524629033        0.6654236262690342    
     1.138813951682133        0.6563781259692736    
     1.143990378735234        0.6474273784819813    
     1.149166805788335        0.6385715755527684    
     1.154343232841435        0.6298108683252036    
     1.159519659894536        0.6211453680656196    
     1.164696086947636        0.6125751468809186    
     1.169872514000737        0.6041002384538804    
     1.175048941053838        0.5957206387942534    
     1.180225368106938        0.5874363069318455    
     1.185401795160039        0.5792471656447075    
     1.190578222213139        0.5711531022072660    
     1.195754649266240        0.5631539692508850    
     1.200931076319341        0.5552495851019488    
     1.206107503372441        0.5474397347654556    
     1.211283930425542        0.5397241704952064    
     1.216460357478643        0.5321026129578305    
     1.221636784531743        0.5245747514083453    
     1.226813211584844        0.5171402453632317    
     1.231989638637944        0.5097987249278693    
     1.237166065691045        0.5025497886345834    
     1.242342492744146        0.4953929980731897    
     1.247518919797246        0.4883278878265140    
     1.252695346850347        0.4813539858453368    
     1.257871773903447        0.4744708286235531    
     1.263048200956548        0.4676779134741398    
     1.268224628009649        0.4609746211864426    
     1.273401055062749        0.4543601520723296    
     1.278577482115850        0.4478335646020509    
     1.283753909168950        0.4413938591963805    
     1.288930336222051        0.4350400606941099    
     1.294106763275152        0.4287712283763096    
     1.299283190328252        0.4225864387121880    
     1.304459617381353        0.4164847641400778    
     1.309636044434453        0.4104652736756625    
     1.314812471487554        0.4045270377576433    
     1.319988898540655        0.3986691314819959    
     1.325165325593755        0.3928906345550141    
     1.330341752646856        0.3871906308904091    
     1.335518179699956        0.3815682088585204    
     1.340694606753057        0.3760224615120177    
     1.345871033806158        0.3705524868137517    
     1.351047460859258        0.3651573878496341    
     1.356223887912359        0.3598362730277225    
     1.361400314965459        0.3545882562646646    
     1.366576742018560        0.3494124571608043    
     1.371753169071661        0.3443080011642931    
     1.376929596124761        0.3392740197246111    
     1.382106023177862        0.3343096504359026    
     1.387282450230962        0.3294140371705129    
     1.392458877284063        0.3245863302031368    
     1.397635304337164        0.3198256863259423    
     1.402811731390264        0.3151312689550329    
     1.407988158443365        0.3105022482286558    
     1.413164585496466        0.3059378010974423    
     1.418341012549566        0.3014371114069572    
     1.423517439602667        0.2969993699730560    
     1.428693866655767        0.2926237746501911    
     1.433870293708868        0.2883095303929315    
     1.439046720761969        0.2840558493111897    
     1.444223147815069        0.2798619507192544    
     1.449399574868170        0.2757270611788809    
     1.454576001921270        0.2716504145367976    
     1.459752428974371        0.2676312519568772    
     1.464928856027472        0.2636688219471053    
     1.470105283080572        0.2597623803815475    
     1.475281710133673        0.2559111905178096    
     1.480458137186773        0.2521145230098857    
     1.485634564239874        0.2483716559164640    
     1.490810991292975        0.2446818747057855    
     1.495987418346075        0.2410444722565604    
     1.501163845399176        0.2374587488567801    
     1.506340272452277        0.2339240121963161    
     1.511516699505377        0.2304395773509429    
     1.516693126558478        0.2270047667341998    
     1.521869553611578        0.2236189101965887    
     1.527045980664679        0.2202813449061488    
     1.532222407717780        0.2169914153452378    
     1.537398834770880        0.2137484732676780    
     1.542575261823981        0.2105518776731745    
     1.547751688877081        0.2074009948426332    
     1.552928115930182        0.2042951986610858    
     1.558104542983282        0.2012338695503651    
     1.563280970036383        0.1982163952347180    
     1.568457397089484        0.1952421703942487    
     1.573633824142584        0.1923105965349812    
     1.578810251195685        0.1894210831999111    
     1.583986678248785        0.1865730463516265    
     1.589163105301886        0.1837659089390368    
     1.594339532354987        0.1809991006811975    
     1.599515959408087        0.1782720581364562    
     1.604692386461188        0.1755842247732414    
     1.609868813514288        0.1729350512377844    
     1.615045240567389        0.1703239940350092    
     1.620221667620490        0.1677505166019673    
     1.625398094673590        0.1652140889400454    
     1.630574521726691        0.1627141874581686    
     1.635750948779792        0.1602502955296268    
     1.640927375832892        0.1578219026979647    
     1.646103802885993        0.1554285048900111    
     1.651280229939093        0.1530696043403904    
     1.656456656992194        0.1507447095233923    
     1.661633084045295        0.1484533351507675    
     1.666809511098395        0.1461950020882460    
     1.671985938151496        0.1439692372940161    
     1.677162365204596        0.1417755737608646    
     1.682338792257697        0.1396135504598950    
     1.687515219310798        0.1374827122824719    
     1.692691646363898        0.1353826099820197    
     1.697868073416999        0.1333128001154915    
     1.703044500470100        0.1312728449846756    
     1.708220927523200        0.1292623125774554    
     1.713397354576301        0.1272807765090180    
     1.718573781629401        0.1253278159630282    
     1.723750208682502        0.1234030156328118    
     1.728926635735603        0.1215059656625621    
     1.734103062788703        0.1196362615886389    
     1.739279489841804        0.1177935042809051    
     1.744455916894904        0.1159772998842044    
     1.749632343948005        0.1141872597599532    
     1.754808771001106        0.1124230004279557    
     1.759985198054206        0.1106841435082999    
     1.765161625107307        0.1089703156635067    
     1.770338052160407        0.1072811485408727    
     1.775514479213508        0.1056162787151272    
     1.780690906266609        0.1039753476312225    
     1.785867333319709        0.1023580015474581    
     1.791043760372810        0.1007638914788566    
     1.796220187425910        0.9919267314093363E-01
     1.801396614479011        0.9764400689364669E-01
     1.806573041532112        0.9611755768572564E-01
     1.811749468585212        0.9461299499932120E-01
     1.816925895638313        0.9312999279507542E-01
     1.822102322691413        0.9166822945745146E-01
     1.827278749744514        0.9022738774045001E-01
     1.832455176797615        0.8880715471370912E-01
     1.837631603850715        0.8740722170901893E-01
     1.842808030903816        0.8602728426720883E-01
     1.847984457956916        0.8466704208537608E-01
     1.853160885010017        0.8332619896457223E-01
     1.858337312063118        0.8200446275788179E-01
     1.863513739116218        0.8070154531897346E-01
     1.868690166169319        0.7941716245095053E-01
     1.873866593222419        0.7815103385571059E-01
     1.879043020275520        0.7690288308369471E-01
     1.884219447328621        0.7567243748413825E-01
     1.889395874381721        0.7445942815565262E-01
     1.894572301434822        0.7326358989730010E-01
     1.899748728487922        0.7208466116009329E-01
     1.904925155541023        0.7092238399896181E-01
     1.910101582594124        0.6977650402513372E-01
     1.915278009647224        0.6864677035895662E-01
     1.920454436700325        0.6753293558317791E-01
     1.925630863753426        0.6643475569666633E-01
     1.930807290806526        0.6535199006859412E-01
     1.935983717859627        0.6428440139303586E-01
     1.941160144912727        0.6323175564403478E-01
     1.946336571965828        0.6219382203111071E-01
     1.951512999018929        0.6117037295521316E-01
     1.956689426072029        0.6016118396512023E-01
     1.961865853125130        0.5916603371428202E-01
     1.967042280178230        0.5818470391810791E-01
     1.972218707231331        0.5721697931169532E-01
     1.977395134284432        0.5626264760799216E-01
     1.982571561337532        0.5532149945641564E-01
     1.987747988390633        0.5439332840189671E-01
     1.992924415443733        0.5347793084436962E-01
     1.998100842496834        0.5257510599867249E-01
     2.003277269549935        0.5168465585490870E-01
     2.008453696603035        0.5080638513922947E-01
     2.013630123656136        0.4994010127503892E-01
     2.018806550709237        0.4908561434463484E-01
     2.023982977762337        0.4824273705124547E-01
     2.029159404815438        0.4741128468152705E-01
     2.034335831868539        0.4659107506845439E-01
     2.039512258921639        0.4578192855463541E-01
     2.044688685974740        0.4498366795602857E-01
     2.049865113027840        0.4419611852607412E-01
     2.055041540080941        0.4341910792025079E-01
     2.060217967134041        0.4265246616101956E-01
     2.065394394187142        0.4189602560324363E-01
     2.070570821240242        0.4114962089972411E-01
     2.075747248293343        0.4041308896746830E-01
     2.080923675346444        0.3968626895427934E-01
     2.086100102399544        0.3896900220565079E-01
     2.091276529452645        0.3826113223222272E-01
     2.096452956505745        0.3756250467717154E-01
     2.101629383558846        0.3687296728447163E-01
     2.106805810611947        0.3619236986716678E-01
     2.111982237665047        0.3552056427591498E-01
     2.117158664718148        0.3485740436650770E-01
     2.122335091771248        0.3420274597592240E-01
     2.127511518824349        0.3355644688583657E-01
     2.132687945877450        0.3291836679501022E-01
     2.137864372930550        0.3228836729114026E-01
     2.143040799983651        0.3166631182437463E-01
     2.148217227036751        0.3105206566354478E-01
     2.153393654089852        0.3044549588459419E-01
     2.158570081142953        0.2984647133698676E-01
     2.163746508196053        0.2925486261446952E-01
     2.168922935249154        0.2867054202449524E-01
     2.174099362302255        0.2809338358086103E-01
     2.179275789355355        0.2752326295609979E-01
     2.184452216408456        0.2696005746022628E-01
     2.189628643461556        0.2640364601514012E-01
     2.194805070514657        0.2585390912951348E-01
     2.199981497567758        0.2531072887399238E-01
     2.205157924620858        0.2477398885585251E-01
     2.210334351673959        0.2424357419424713E-01
     2.215510778727059        0.2371937149575722E-01
     2.220687205780160        0.2320126883017774E-01
     2.225863632833261        0.2268915570658091E-01
     2.231040059886361        0.2218292304980615E-01
     2.236216486939462        0.2168246317719526E-01
     2.241392913992562        0.2118766977559054E-01
     2.246569341045663        0.2069843787860903E-01
     2.251745768098764        0.2021466384421254E-01
     2.256922195151864        0.1973624533253857E-01
     2.262098622204965        0.1926308128401901E-01
     2.267275049258066        0.1879507189776328E-01
     2.272451476311166        0.1833211861020387E-01
     2.277627903364267        0.1787412407402052E-01
     2.282804330417367        0.1742099213729427E-01
     2.287980757470468        0.1697262782292376E-01
     2.293157184523569        0.1652893730829589E-01
     2.298333611576669        0.1608982790519935E-01
     2.303510038629770        0.1565520803999033E-01
     2.308686465682870        0.1522498723399286E-01
     2.313862892735971        0.1479907608413322E-01
     2.319039319789072        0.1437738624381316E-01
     2.324215746842172        0.1395983040401290E-01
     2.329392173895273        0.1354632227462069E-01
     2.334568600948373        0.1313677656599269E-01
     2.339745028001474        0.1273110897077148E-01
     2.344921455054575        0.1232923615559581E-01
     2.350097882107675        0.1193107599661499E-01
     2.355274309160776        0.1153654941848282E-01
     2.360450736213877        0.1114558615621016E-01
     2.365627163266977        0.1075813472713684E-01
     2.370803590320078        0.1037417388365795E-01
     2.375980017373178        0.9993722231789074E-02
     2.381156444426279        0.9616844080810195E-02
     2.386332871479380        0.9243651166301502E-02
     2.391509298532480        0.8874300855878496E-02
     2.396685725585581        0.8508991806756986E-02
     2.401862152638681        0.8147958036604562E-02
     2.407038579691782        0.7791462201277469E-02
     2.412215006744883        0.7439788667250408E-02
     2.417391433797983        0.7093236779505422E-02
     2.422567860851084        0.6752114576383992E-02
     2.427744287904184        0.6416733092687922E-02
     2.432920714957285        0.6087401315154760E-02
     2.438097142010386        0.5764421802977150E-02
     2.443273569063486        0.5448086953346919E-02
     2.448449996116587        0.5138675872550715E-02
     2.453626423169688        0.4836451802678192E-02
     2.458802850222788        0.4541660049523455E-02
     2.463979277275889        0.4254526356522302E-02
     2.469155704328989        0.3975255671151684E-02
     2.474332131382090        0.3704031253047060E-02
     2.479508558435191        0.3441014076491027E-02
     2.484684985488291        0.3186342483419117E-02
     2.489861412541392        0.2940132046318210E-02
     2.495037839594492        0.2702475603085205E-02
     2.500214266647593        0.2473443427807615E-02
     2.505390693700694        0.2253083502189965E-02
     2.510567120753794        0.2041421851494031E-02
     2.515743547806895        0.1838462905653586E-02
     2.520919974859995        0.1644189839323550E-02
     2.526096401913096        0.1458564831742284E-02
     2.531272828966197        0.1281529164110697E-02
     2.536449256019297        0.1113003030411079E-02
     2.541625683072398        0.9528848602258575E-03
     2.546802110125499        0.8010498023654669E-03
     2.551978537178599        0.6573467097346331E-03
     2.557154964231700        0.5215922770065810E-03
     2.562331391284800        0.3935592684425732E-03
     2.567507818337901        0.2729508243982651E-03
     2.572684245391001        0.1593351310671096E-03
     2.577860672444102        0.5191703671924799E-04
     2.583037099497203         0.000000000000000    
  0  4  1  0  2.000000   #orbital l, n, z, is_polarized, population
 500    0.1482965003318126E-01     7.399995366557449     # npts, delta, cutoff
     0.000000000000000        0.9486051283880236    
    0.1482965003318126E-01    0.9483763158661089    
    0.2965930006636252E-01    0.9477645629324843    