unknown system                          
   1.0000000000000000     
     2.000000    0.000000    0.000000
     0.000000    3.000000    0.000000
     0.000000    0.000000    4.000000
   N    O 
     1     1
Direct
  0.500000  0.500000  0.560440
  0.500000  0.500000  0.261936

   32   48   64
 0.12368     0.12470     0.12773     0.13264     0.13925     0.14731     0.15655     0.16665     0.17727     0.18801    
 0.19844     0.20814     0.21668     0.22371     0.22894     0.23216     0.23324     0.23216     0.22894     0.22371    
 0.21668     0.20814     0.19844     0.18801     0.17727     0.16665     0.15655     0.14731     0.13925     0.13264    
 0.12773     0.12470     0.12589     0.12696     0.13010     0.13520     0.14205     0.15041     0.15999     0.17045    
 0.18143     0.19253     0.20331     0.21334     0.22218     0.22946     0.23487     0.23820     0.23933     0.23820    
 0.23487     0.22946     0.22218     0.21334     0.20331     0.19253     0.18143     0.17045     0.15999     0.15041    
 0.14205     0.13520     0.13010     0.12696     0.13258     0.13376     0.13725     0.14291     0.15051     0.15976    
 0.17033     0.18187     0.19395     0.20615     0.21800     0.22903     0.23877     0.24682     0.25282     0.25652    
 0.25778     0.25652     0.25282     0.24682     0.23877     0.22903     0.21800     0.20615     0.19395     0.18187    
 0.17033     0.15976     0.15051     0.14291     0.13725     0.13376     0.14386     0.14523     0.14929     0.15586    
 0.16469     0.17542     0.18767     0.20102     0.21498     0.22907     0.24276     0.25553     0.26685     0.27622    
 0.28323     0.28757     0.28904     0.28757     0.28323     0.27622     0.26685     0.25553     0.24276     0.22907    
 0.21498     0.20102     0.18767     0.17542     0.16469     0.15586     0.14929     0.14523     0.15988     0.16152    
 0.16635     0.17419     0.18472     0.19754     0.21218     0.22813     0.24483     0.26169     0.27810     0.29343    
 0.30707     0.31841     0.32693     0.33222     0.33402     0.33222     0.32693     0.31841     0.30707     0.29343    
 0.27810     0.26169     0.24483     0.22813     0.21218     0.19754     0.18472     0.17419     0.16635     0.16152    
 0.18081     0.18277     0.18860     0.19805     0.21079     0.22634     0.24415     0.26360     0.28400     0.30465    
 0.32480     0.34368     0.36053     0.37458     0.38518     0.39177     0.39400     0.39177     0.38518     0.37458    
 0.36053     0.34368     0.32480     0.30465     0.28400     0.26360     0.24415     0.22634     0.21079     0.19805    
 0.18860     0.18277     0.20674     0.20912     0.21616     0.22762     0.24313     0.26215     0.28403     0.30802    
 0.33327     0.35892     0.38402     0.40760     0.42869     0.44634     0.45968     0.46799     0.47082     0.46799    
 0.45968     0.44634     0.42869     0.40760     0.38402     0.35892     0.33327     0.30802     0.28403     0.26215    
 0.24313     0.22762     0.21616     0.20912     0.23775     0.24062     0.24915     0.26309     0.28204     0.30540    
 0.33242     0.36218     0.39366     0.42573     0.45721     0.48687     0.51345     0.53572     0.55256     0.56307    
 0.56665     0.56307     0.55256     0.53572     0.51345     0.48687     0.45721     0.42573     0.39366     0.36218    
 0.33242     0.30540     0.28204     0.26309     0.24915     0.24062     0.27385     0.27732     0.28767     0.30466    
 0.32785     0.35660     0.39003     0.42704     0.46635     0.50653     0.54608     0.58340     0.61688     0.64498    
 0.66625     0.67953     0.68404     0.67953     0.66625     0.64498     0.61688     0.58340     0.54608     0.50653    
 0.46635     0.42704     0.39003     0.35660     0.32785     0.30466     0.28767     0.27732     0.31500     0.31922    
 0.33180     0.35251     0.38091     0.41629     0.45761     0.50356     0.55255     0.60279     0.65233     0.69916    
 0.74122     0.77651     0.80323     0.81991     0.82558     0.81991     0.80323     0.77651     0.74122     0.69916    
 0.65233     0.60279     0.55255     0.50356     0.45761     0.41629     0.38091     0.35251     0.33180     0.31922    
 0.36114     0.36626     0.38155     0.40678     0.44148     0.48487     0.53576     0.59256     0.65331     0.71577    
 0.77749     0.83589     0.88838     0.93245     0.96583     0.98666     0.99374     0.98666     0.96583     0.93245    
 0.88838     0.83589     0.77749     0.71577     0.65331     0.59256     0.53576     0.48487     0.44148     0.40678    
 0.38155     0.36626     0.41207     0.41827     0.43679     0.46742     0.50964     0.56256     0.62482     0.69451    
 0.76926     0.84630     0.92255     0.99483      1.0599      1.1145      1.1558      1.1816      1.1904      1.1816    
  1.1558      1.1145      1.0599     0.99483     0.92255     0.84630     0.76926     0.69451     0.62482     0.56256    
 0.50964     0.46742     0.43679     0.41827     0.46746     0.47492     0.49724     0.53416     0.58513     0.64916    
 0.72464     0.80934     0.90042     0.99449      1.0878      1.1764      1.2562      1.3233      1.3741      1.4058    
  1.4166      1.4058      1.3741      1.3233      1.2562      1.1764      1.0878     0.99449     0.90042     0.80934    
 0.72464     0.64916     0.58513     0.53416     0.49724     0.47492     0.52674     0.53564     0.56228     0.60638    
 0.66733     0.74398     0.83450     0.93629      1.0460      1.1596      1.2726      1.3800      1.4770      1.5586    
  1.6204      1.6590      1.6722      1.6590      1.6204      1.5586      1.4770      1.3800      1.2726      1.1596    
  1.0460     0.93629     0.83450     0.74398     0.66733     0.60638     0.56228     0.53564     0.58905     0.59956    
 0.63101     0.68309     0.75511     0.84577     0.95299      1.0738      1.2044      1.3399      1.4750      1.6038    
  1.7202      1.8184      1.8930      1.9396      1.9554      1.9396      1.8930      1.8184      1.7202      1.6038    
  1.4750      1.3399      1.2044      1.0738     0.95299     0.84577     0.75511     0.68309     0.63101     0.59956    
 0.65325     0.66550     0.70216     0.76287     0.84686     0.95268      1.0780      1.2195      1.3728      1.5323    
  1.6918      1.8443      1.9826      2.0993      2.1881      2.2436      2.2625      2.2436      2.1881      2.0993    
  1.9826      1.8443      1.6918      1.5323      1.3728      1.2195      1.0780     0.95268     0.84686     0.76287    
 0.70216     0.66550     0.71791     0.73199     0.77413     0.84392     0.94050      1.0623      1.2068      1.3702    
  1.5477      1.7328      1.9186      2.0968      2.2585      2.3953      2.4996      2.5649      2.5872      2.5649    
  2.4996      2.3953      2.2585      2.0968      1.9186      1.7328      1.5477      1.3702      1.2068      1.0623    
 0.94050     0.84392     0.77413     0.73199     0.78140     0.79735     0.84506     0.92412      1.0336      1.1717    
  1.3358      1.5218      1.7242      1.9363      2.1494      2.3542      2.5408      2.6992      2.8200      2.8958    
  2.9216      2.8958      2.8200      2.6992      2.5408      2.3542      2.1494      1.9363      1.7242      1.5218    
  1.3358      1.1717      1.0336     0.92412     0.84506     0.79735     0.84191     0.85968     0.91291      1.0011    
  1.1233      1.2776      1.4612      1.6696      1.8972      2.1360      2.3765      2.6087      2.8207      3.0008    
  3.1382      3.2244      3.2538      3.2244      3.1382      3.0008      2.8207      2.6087      2.3765      2.1360    
  1.8972      1.6696      1.4612      1.2776      1.1233      1.0011     0.91291     0.85968     0.89751     0.91703    
 0.97545      1.0723      1.2065      1.3762      1.5784      1.8084      2.0600      2.3245      2.5920      2.8506    
  3.0868      3.2877      3.4413      3.5378      3.5708      3.5378      3.4413      3.2877      3.0868      2.8506    
  2.5920      2.3245      2.0600      1.8084      1.5784      1.3762      1.2065      1.0723     0.97545     0.91703    
 0.94633     0.96743      1.0305      1.1352      1.2802      1.4639      1.6829      1.9326      2.2059      2.4941    
  2.7862      3.0687      3.3272      3.5475      3.7163      3.8224      3.8587      3.8224      3.7163      3.5475    
  3.3272      3.0687      2.7862      2.4941      2.2059      1.9326      1.6829      1.4639      1.2802      1.1352    
  1.0305     0.96743     0.98655      1.0090      1.0760      1.1872      1.3414      1.5368      1.7701      2.0364    
  2.3282      2.6367      2.9497      3.2525      3.5302      3.7673      3.9491      4.0635      4.1025      4.0635    
  3.9491      3.7673      3.5302      3.2525      2.9497      2.6367      2.3282      2.0364      1.7701      1.5368    
  1.3414      1.1872      1.0760      1.0090      1.0166      1.0400      1.1100      1.2261      1.3874      1.5917    
  1.8358      2.1148      2.4208      2.7448      3.0735      3.3921      3.6846      3.9346      4.1264      4.2471    
  4.2883      4.2471      4.1264      3.9346      3.6846      3.3921      3.0735      2.7448      2.4208      2.1148    
  1.8358      1.5917      1.3874      1.2261      1.1100      1.0400      1.0351      1.0591      1.1310      1.2503    
  1.4159      1.6258      1.8768      2.1636      2.4786      2.8123      3.1509      3.4794      3.7813      4.0395    
  4.2375      4.3621      4.4046      4.3621      4.2375      4.0395      3.7813      3.4794      3.1509      2.8123    
  2.4786      2.1636      1.8768      1.6258      1.4159      1.2503      1.1310      1.0591      1.0414      1.0656    
  1.1382      1.2584      1.4255      1.6373      1.8907      2.1802      2.4983      2.8353      3.1773      3.5091    
  3.8143      4.0752      4.2753      4.4012      4.4442      4.4012      4.2753      4.0752      3.8143      3.5091    
  3.1773      2.8353      2.4983      2.1802      1.8907      1.6373      1.4255      1.2584      1.1382      1.0656    
  1.0351      1.0591      1.1310      1.2503      1.4159      1.6258      1.8768      2.1636      2.4786      2.8123    
  3.1509      3.4794      3.7813      4.0395      4.2375      4.3621      4.4046      4.3621      4.2375      4.0395    
  3.7813      3.4794      3.1509      2.8123      2.4786      2.1636      1.8768      1.6258      1.4159      1.2503    
  1.1310      1.0591      1.0166      1.0400      1.1100      1.2261      1.3874      1.5917      1.8358      2.1148    
  2.4208      2.7448      3.0735      3.3921      3.6846      3.9346      4.1264      4.2471      4.2883      4.2471    
  4.1264      3.9346      3.6846      3.3921      3.0735      2.7448      2.4208      2.1148      1.8358      1.5917    
  1.3874      1.2261      1.1100      1.0400     0.98655      1.0090      1.0760      1.1872      1.3414      1.5368    
  1.7701      2.0364      2.3282      2.6367      2.9497      3.2525      3.5302      3.7673      3.9491      4.0635    
  4.1025      4.0635      3.9491      3.7673      3.5302      3.2525      2.9497      2.6367      2.3282      2.0364    
  1.7701      1.5368      1.3414      1.1872      1.0760      1.0090     0.94633     0.96743      1.0305      1.1352    
  1.2802      1.4639      1.6829      1.9326      2.2059      2.4941      2.7862      3.0687      3.3272      3.5475    
  3.7163      3.8224      3.8587      3.8224      3.7163      3.5475      3.3272      3.0687      2.7862      2.4941    
  2.2059      1.9326      1.6829      1.4639      1.2802      1.1352      1.0305     0.96743     0.89751     0.91703    
 0.97545      1.0723      1.2065      1.3762      1.5784      1.8084      2.0600      2.3245      2.5920      2.8506    
  3.0868      3.2877      3.4413      3.5378      3.5708      3.5378      3.4413      3.2877      3.0868      2.8506    
  2.5920      2.3245      2.0600      1.8084      1.5784      1.3762      1.2065      1.0723     0.97545     0.91703    
 0.84191     0.85968     0.91291      1.0011      1.1233      1.2776      1.4612      1.6696      1.8972      2.1360    
  2.3765      2.6087      2.8207      3.0008      3.1382      3.2244      3.2538      3.2244      3.1382      3.0008    
  2.8207      2.6087      2.3765      2.1360      1.8972      1.6696      1.4612      1.2776      1.1233      1.0011    
 0.91291     0.85968     0.78140     0.79735     0.84506     0.92412      1.0336      1.1717      1.3358      1.5218    
  1.7242      1.9363      2.1494      2.3542      2.5408      2.6992      2.8200      2.8958      2.9216      2.8958    
  2.8200      2.6992      2.5408      2.3542      2.1494      1.9363      1.7242      1.5218      1.3358      1.1717    
  1.0336     0.92412     0.84506     0.79735     0.71791     0.73199     0.77413     0.84392     0.94050      1.0623    
  1.2068      1.3702      1.5477      1.7328      1.9186      2.0968      2.2585      2.3953      2.4996      2.5649    
  2.5872      2.5649      2.4996      2.3953      2.2585      2.0968      1.9186      1.7328      1.5477      1.3702    
  1.2068      1.0623     0.94050     0.84392     0.77413     0.73199     0.65325     0.66550     0.70216     0.76287    
 0.84686     0.95268      1.0780      1.2195      1.3728      1.5323      1.6918      1.8443      1.9826      2.0993    
  2.1881      2.2436      2.2625      2.2436      2.1881      2.0993      1.9826      1.8443      1.6918      1.5323    
  1.3728      1.2195      1.0780     0.95268     0.84686     0.76287     0.70216     0.66550     0.58905     0.59956    
 0.63101     0.68309     0.75511     0.84577     0.95299      1.0738      1.2044      1.3399      1.4750      1.6038    
  1.7202      1.8184      1.8930      1.9396      1.9554      1.9396      1.8930      1.8184      1.7202      1.6038    
  1.4750      1.3399      1.2044      1.0738     0.95299     0.84577     0.75511     0.68309     0.63101     0.59956    
 0.52674     0.53564     0.56228     0.60638     0.66733     0.74398     0.83450     0.93629      1.0460      1.1596    
  1.2726      1.3800      1.4770      1.5586      1.6204      1.6590      1.6722      1.6590      1.6204      1.5586    
  1.4770      1.3800      1.2726      1.1596      1.0460     0.93629     0.83450     0.74398     0.66733     0.60638    
 0.56228     0.53564     0.46746     0.47492     0.49724     0.53416     0.58513     0.64916     0.72464     0.80934    
 0.90042     0.99449      1.0878      1.1764      1.2562      1.3233      1.3741      1.4058      1.4166      1.4058    
  1.3741      1.3233      1.2562      1.1764      1.0878     0.99449     0.90042     0.80934     0.72464     0.64916    
 0.58513     0.53416     0.49724     0.47492     0.41207     0.41827     0.43679     0.46742     0.50964     0.56256    
 0.62482     0.69451     0.76926     0.84630     0.92255     0.99483      1.0599      1.1145      1.1558      1.1816    
  1.1904      1.1816      1.1558      1.1145      1.0599     0.99483     0.92255     0.84630     0.76926     0.69451    
 0.62482     0.56256     0.50964     0.46742     0.43679     0.41827     0.36114     0.36626     0.38155     0.40678    
 0.44148     0.48487     0.53576     0.59256     0.65331     0.71577     0.77749     0.83589     0.88838     0.93245    
 0.96583     0.98666     0.99374     0.98666     0.96583     0.93245     0.88838     0.83589     0.77749     0.71577    
 0.65331     0.59256     0.53576     0.48487     0.44148     0.40678     0.38155     0.36626     0.31500     0.31922    
 0.33180     0.35251     0.38091     0.41629     0.45761     0.50356     0.55255     0.60279     0.65233     0.69916    
 0.74122     0.77651     0.80323     0.81991     0.82558     0.81991     0.80323     0.77651     0.74122     0.69916    
 0.65233     0.60279     0.55255     0.50356     0.45761     0.41629     0.38091     0.35251     0.33180     0.31922    
 0.27385     0.27732     0.28767     0.30466     0.32785     0.35660     0.39003     0.42704     0.46635     0.50653    
 0.54608     0.58340     0.61688     0.64498     0.66625     0.67953     0.68404     0.67953     0.66625     0.64498    
 0.61688     0.58340     0.54608     0.50653     0.46635     0.42704     0.39003     0.35660     0.32785     0.30466    
 0.28767     0.27732     0.23775     0.24062     0.24915     0.26309     0.28204     0.30540     0.33242     0.36218    
 0.39366     0.42573     0.45721     0.48687     0.51345     0.53572     0.55256     0.56307     0.56665     0.56307    
 0.55256     0.53572     0.51345     0.48687     0.45721     0.42573     0.39366     0.36218     0.33242     0.30540    
 0.28204     0.26309     0.24915     0.24062     0.20674     0.20912     0.21616     0.22762     0.24313     0.26215    
 0.28403     0.30802     0.33327     0.35892     0.38402     0.40760     0.42869     0.44634     0.45968     0.46799    
 0.47082     0.46799     0.45968     0.44634     0.42869     0.40760     0.38402     0.35892     0.33327     0.30802    
 0.28403     0.26215     0.24313     0.22762     0.21616     0.20912     0.18081     0.18277     0.18860     0.19805    
 0.21079     0.22634     0.24415     0.26360     0.28400     0.30465     0.32480     0.34368     0.36053     0.37458    
 0.38518     0.39177     0.39400     0.39177     0.38518     0.37458     0.36053     0.34368     0.32480     0.30465    
 0.28400     0.26360     0.24415     0.22634     0.21079     0.19805     0.18860     0.18277     0.15988     0.16152    
 0.16635     0.17419     0.18472     0.19754     0.21218     0.22813     0.24483     0.26169     0.27810     0.29343    
 0.30707     0.31841     0.32693     0.33222     0.33402     0.33222     0.32693     0.31841     0.30707     0.29343    
 0.27810     0.26169     0.24483     0.22813     0.21218     0.19754     0.18472     0.17419     0.16635     0.16152    
 0.14386     0.14523     0.14929     0.15586     0.16469     0.17542     0.18767     0.20102     0.21498     0.22907    
 0.24276     0.25553     0.26685     0.27622     0.28323     0.28757     0.28904     0.28757     0.28323     0.27622    
 0.26685     0.25553     0.24276     0.22907     0.21498     0.20102     0.18767     0.17542     0.16469     0.15586    
 0.14929     0.14523     0.13258     0.13376     0.13725     0.14291     0.15051     0.15976     0.17033     0.18187    
 0.19395     0.20615     0.21800     0.22903     0.23877     0.24682     0.25282     0.25652     0.25778     0.25652    
 0.25282     0.24682     0.23877     0.22903     0.21800     0.20615     0.19395     0.18187     0.17033     0.15976    
 0.15051     0.14291     0.13725     0.13376     0.12589     0.12696     0.13010     0.13520     0.14205     0.15041    
 0.15999     0.17045     0.18143     0.19253     0.20331     0.21334     0.22218     0.22946     0.23487     0.23820    
 0.23933     0.23820     0.23487     0.22946     0.22218     0.21334     0.20331     0.19253     0.18143     0.17045    
 0.15999     0.15041     0.14205     0.13520     0.13010     0.12696     0.13667     0.13787     0.14141     0.14714    
 0.15485     0.16426     0.17503     0.18681     0.19918     0.21171     0.22390     0.23525     0.24529     0.25356    
 0.25971     0.26351     0.26479     0.26351     0.25971     0.25356     0.24529     0.23525     0.22390     0.21171    
 0.19918     0.18681     0.17503     0.16426     0.15485     0.14714     0.14141     0.13787     0.13923     0.14047    
 0.14415     0.15010     0.15811     0.16787     0.17904     0.19124     0.20406     0.21702     0.22964     0.24139    
 0.25177     0.26035     0.26675     0.27070     0.27204     0.27070     0.26675     0.26035     0.25177     0.24139    
 0.22964     0.21702     0.20406     0.19124     0.17904     0.16787     0.15811     0.15010     0.14415     0.14047    
 0.14693     0.14832     0.15240     0.15902     0.16791     0.17873     0.19110     0.20459     0.21874     0.23305    
 0.24696     0.25994     0.27145     0.28097     0.28809     0.29249     0.29398     0.29249     0.28809     0.28097    
 0.27145     0.25994     0.24696     0.23305     0.21874     0.20459     0.19110     0.17873     0.16791     0.15902    
 0.15240     0.14832     0.15993     0.16154     0.16629     0.17400     0.18435     0.19695     0.21135     0.22704    
 0.24348     0.26010     0.27628     0.29141     0.30484     0.31602     0.32440     0.32961     0.33137     0.32961    
 0.32440     0.31602     0.30484     0.29141     0.27628     0.26010     0.24348     0.22704     0.21135     0.19695    
 0.18435     0.17400     0.16629     0.16154     0.17839     0.18031     0.18599     0.19521     0.20761     0.22274    
 0.24004     0.25892     0.27873     0.29878     0.31833     0.33667     0.35301     0.36665     0.37691     0.38330    
 0.38547     0.38330     0.37691     0.36665     0.35301     0.33667     0.31833     0.29878     0.27873     0.25892    
 0.24004     0.22274     0.20761     0.19521     0.18599     0.18031     0.20250     0.20482     0.21169     0.22286    
 0.23795     0.25642     0.27762     0.30083     0.32526     0.35004     0.37430     0.39709     0.41748     0.43454    
 0.44743     0.45547     0.45820     0.45547     0.44743     0.43454     0.41748     0.39709     0.37430     0.35004    
 0.32526     0.30083     0.27762     0.25642     0.23795     0.22286     0.21169     0.20482     0.23242     0.23524    
 0.24359     0.25723     0.27573     0.29848     0.32475     0.35365     0.38418     0.41528     0.44580     0.47457    
 0.50037     0.52199     0.53836     0.54857     0.55204     0.54857     0.53836     0.52199     0.50037     0.47457    
 0.44580     0.41528     0.38418     0.35365     0.32475     0.29848     0.27573     0.25723     0.24359     0.23524    
 0.26829     0.27172     0.28191     0.29862     0.32140     0.34959     0.38233     0.41852     0.45695     0.49624    
 0.53492     0.57145     0.60425     0.63180     0.65267     0.66571     0.67014     0.66571     0.65267     0.63180    
 0.60425     0.57145     0.53492     0.49624     0.45695     0.41852     0.38233     0.34959     0.32140     0.29862    
 0.28191     0.27172     0.31019     0.31438     0.32686     0.34739     0.37552     0.41052     0.45138     0.49680    
 0.54523     0.59492     0.64397     0.69038     0.73211     0.76716     0.79371     0.81030     0.81594     0.81030    
 0.79371     0.76716     0.73211     0.69038     0.64397     0.59492     0.54523     0.49680     0.45138     0.41052    
 0.37552     0.34739     0.32686     0.31438     0.35817     0.36330     0.37861     0.40388     0.43862     0.48205    
 0.53298     0.58985     0.65073     0.71338     0.77537     0.83410     0.88694     0.93135     0.96501     0.98603    
 0.99318     0.98603     0.96501     0.93135     0.88694     0.83410     0.77537     0.71338     0.65073     0.58985    
 0.53298     0.48205     0.43862     0.40388     0.37861     0.36330     0.41220     0.41848     0.43727     0.46832    
 0.51114     0.56484     0.62805     0.69887     0.77493     0.85343     0.93124      1.0051      1.0716      1.1275    
  1.1699      1.1963      1.2053      1.1963      1.1699      1.1275      1.0716      1.0051     0.93124     0.85343    
 0.77493     0.69887     0.62805     0.56484     0.51114     0.46832     0.43727     0.41848     0.47213     0.47980    
 0.50277     0.54077     0.59327     0.65925     0.73711     0.82460     0.91883      1.0163      1.1132      1.2053    
  1.2883      1.3582      1.4112      1.4443      1.4556      1.4443      1.4112      1.3582      1.2883      1.2053    
  1.1132      1.0163     0.91883     0.82460     0.73711     0.65925     0.59327     0.54077     0.50277     0.47980    
 0.53759     0.54691     0.57479     0.62096     0.68479     0.76513     0.86012     0.96712      1.0826      1.2025    
  1.3219      1.4358      1.5386      1.6252      1.6910      1.7321      1.7460      1.7321      1.6910      1.6252    
  1.5386      1.4358      1.3219      1.2025      1.0826     0.96712     0.86012     0.76513     0.68479     0.62096    
 0.57479     0.54691     0.60796     0.61916     0.65267     0.70818     0.78496     0.88171     0.99628      1.1256    
  1.2657      1.4114      1.5571      1.6963      1.8224      1.9288      2.0098      2.0604      2.0777      2.0604    
  2.0098      1.9288      1.8224      1.6963      1.5571      1.4114      1.2657      1.1256     0.99628     0.88171    
 0.78496     0.70818     0.65267     0.61916     0.68223     0.69553     0.73533     0.80125     0.89247      1.0075    
  1.1440      1.2984      1.4660      1.6411      1.8167      1.9851      2.1382      2.2677      2.3663      2.4280    
  2.4491      2.4280      2.3663      2.2677      2.1382      1.9851      1.8167      1.6411      1.4660      1.2984    
  1.1440      1.0075     0.89247     0.80125     0.73533     0.69553     0.75906     0.77464     0.82125     0.89845    
  1.0053      1.1403      1.3006      1.4825      1.6806      1.8883      2.0975      2.2987      2.4821      2.6378    
  2.7567      2.8313      2.8567      2.8313      2.7567      2.6378      2.4821      2.2987      2.0975      1.8883    
  1.6806      1.4825      1.3006      1.1403      1.0053     0.89845     0.82125     0.77464     0.83676     0.85473    
 0.90851     0.99760      1.1210      1.2770      1.4628      1.6741      1.9050      2.1481      2.3937      2.6309    
  2.8481      3.0330      3.1744      3.2631      3.2934      3.2631      3.1744      3.0330      2.8481      2.6309    
  2.3937      2.1481      1.9050      1.6741      1.4628      1.2770      1.1210     0.99760     0.90851     0.85473    
 0.91333     0.93374     0.99483      1.0961      1.2365      1.4141      1.6262      1.8680      2.1334      2.4135    
  2.6978      2.9737      3.2267      3.4425      3.6078      3.7118      3.7473      3.7118      3.6078      3.4425    
  3.2267      2.9737      2.6978      2.4135      2.1334      1.8680      1.6262      1.4141      1.2365      1.0961    
 0.99483     0.93374     0.98654      1.0094      1.0776      1.1909      1.3481      1.5474      1.7856      2.0584    
  2.3584      2.6764      3.0005      3.3154      3.6051      3.8530      4.0435      4.1636      4.2046      4.1636    
  4.0435      3.8530      3.6051      3.3154      3.0005      2.6764      2.3584      2.0584      1.7856      1.5474    
  1.3481      1.1909      1.0776      1.0094      1.0541      1.0791      1.1542      1.2789      1.4521      1.6720    
  1.9356      2.2380      2.5717      2.9269      3.2893      3.6426      3.9689      4.2487      4.4639      4.5995    
  4.6459      4.5995      4.4639      4.2487      3.9689      3.6426      3.2893      2.9269      2.5717      2.2380    
  1.9356      1.6720      1.4521      1.2789      1.1542      1.0791      1.1135      1.1406      1.2219      1.3567    
  1.5444      1.7831      2.0698      2.3994      2.7643      3.1534      3.5513      3.9407      4.3009      4.6101    
  4.8479      4.9978      5.0491      4.9978      4.8479      4.6101      4.3009      3.9407      3.5513      3.1534    
  2.7643      2.3994      2.0698      1.7831      1.5444      1.3567      1.2219      1.1406      1.1626      1.1914    
  1.2778      1.4213      1.6212      1.8758      2.1822      2.5350      2.9266      3.3446      3.7733      4.1938    
  4.5830      4.9171      5.1743      5.3366      5.3921      5.3366      5.1743      4.9171      4.5830      4.1938    
  3.7733      3.3446      2.9266      2.5350      2.1822      1.8758      1.6212      1.4213      1.2778      1.1914    
  1.1992      1.2294      1.3196      1.4698      1.6789      1.9457      2.2671      2.6378      3.0499      3.4901    
  3.9427      4.3870      4.7983      5.1517      5.4239      5.5957      5.6545      5.5957      5.4239      5.1517    
  4.7983      4.3870      3.9427      3.4901      3.0499      2.6378      2.2671      1.9457      1.6789      1.4698    
  1.3196      1.2294      1.2219      1.2529      1.3456      1.4998      1.7148      1.9892      2.3200      2.7020    
  3.1269      3.5813      4.0490      4.5082      4.9335      5.2990      5.5807      5.7586      5.8195      5.7586    
  5.5807      5.2990      4.9335      4.5082      4.0490      3.5813      3.1269      2.7020      2.3200      1.9892    
  1.7148      1.4998      1.3456      1.2529      1.2296      1.2609      1.3544      1.5100      1.7270      2.0040    
  2.3380      2.7239      3.1531      3.6123      4.0852      4.5495      4.9795      5.3492      5.6342      5.8142    
  5.8758      5.8142      5.6342      5.3492      4.9795      4.5495      4.0852      3.6123      3.1531      2.7239    
  2.3380      2.0040      1.7270      1.5100      1.3544      1.2609      1.2219      1.2529      1.3456      1.4998    
  1.7148      1.9892      2.3200      2.7020      3.1269      3.5813      4.0490      4.5082      4.9335      5.2990    
  5.5807      5.7586      5.8195      5.7586      5.5807      5.2990      4.9335      4.5082      4.0490      3.5813    
  3.1269      2.7020      2.3200      1.9892      1.7148      1.4998      1.3456      1.2529      1.1992      1.2294    
  1.3196      1.4698      1.6789      1.9457      2.2671      2.6378      3.0499      3.4901      3.9427      4.3870    
  4.7983      5.1517      5.4239      5.5957      5.6545      5.5957      5.4239      5.1517      4.7983      4.3870    
  3.9427      3.4901      3.0499      2.6378      2.2671      1.9457      1.6789      1.4698      1.3196      1.2294    
  1.1626      1.1914      1.2778      1.4213      1.6212      1.8758      2.1822      2.5350      2.9266      3.3446    
  3.7733      4.1938      4.5830      4.9171      5.1743      5.3366      5.3921      5.3366      5.1743      4.9171    
  4.5830      4.1938      3.7733      3.3446      2.9266      2.5350      2.1822      1.8758      1.6212      1.4213    
  1.2778      1.1914      1.1135      1.1406      1.2219      1.3567      1.5444      1.7831      2.0698      2.3994    
  2.7643      3.1534      3.5513      3.9407      4.3009      4.6101      4.8479      4.9978      5.0491      4.9978    