unknown system                          
   1.0000000000000000     
     2.000000    0.000000    0.000000
     0.000000    3.000000    0.000000
     0.000000    0.000000    4.000000
   N    O 
     1     1
Direct
  0.500000  0.500000  0.566474
  0.500000  0.500000  0.255902

   32   48   64
 0.13530737989E+00 0.13641242928E+00 0.13968053159E+00 0.14498050756E+00 0.15210755394E+00
 0.16080487115E+00 0.17076985444E+00 0.18166490435E+00 0.19310675970E+00 0.20467727684E+00
 0.21592433310E+00 0.22637571808E+00 0.23559934290E+00 0.24319820989E+00 0.24885050686E+00
 0.25232934135E+00 0.25350363465E+00 0.25232934135E+00 0.24885050686E+00 0.24319820989E+00
 0.23559934290E+00 0.22637571808E+00 0.21592433310E+00 0.20467727684E+00 0.19310675970E+00
 0.18166490435E+00 0.17076985444E+00 0.16080487115E+00 0.15210755394E+00 0.14498050756E+00
 0.13968053159E+00 0.13641242928E+00 0.13772772934E+00 0.13887448319E+00 0.14226746899E+00
 0.14776684488E+00 0.15515996536E+00 0.16417441663E+00 0.17449677240E+00 0.18577052625E+00
 0.19760469595E+00 0.20956357135E+00 0.22118308943E+00 0.23199725616E+00 0.24153650007E+00
 0.24939658414E+00 0.25525071106E+00 0.25885963819E+00 0.26007823012E+00 0.25885963819E+00
 0.25525071106E+00 0.24939658414E+00 0.24153650007E+00 0.23199725616E+00 0.22118308943E+00
 0.20956357135E+00 0.19760469595E+00 0.18577052625E+00 0.17449677240E+00 0.16417441663E+00
 0.15515996536E+00 0.14776684488E+00 0.14226746899E+00 0.13887448319E+00 0.14503344927E+00
 0.14630573182E+00 0.15006701778E+00 0.15616146723E+00 0.16434559581E+00 0.17431340640E+00
 0.18570682666E+00 0.19813159932E+00 0.21115066591E+00 0.22429713585E+00 0.23707358022E+00
 0.24896180422E+00 0.25947971703E+00 0.26817412596E+00 0.27466464556E+00 0.27867149947E+00
 0.28002630875E+00 0.27867149947E+00 0.27466464556E+00 0.26817412596E+00 0.25947971703E+00
 0.24896180422E+00 0.23707358022E+00 0.22429713585E+00 0.21115066591E+00 0.19813159932E+00
 0.18570682666E+00 0.17431340640E+00 0.16434559581E+00 0.15616146723E+00 0.15006701778E+00
 0.14630573182E+00 0.15734822499E+00 0.15882397352E+00 0.16318913818E+00 0.17026021991E+00
 0.17975512065E+00 0.19131082352E+00 0.20450944908E+00 0.21888437209E+00 0.23393700106E+00
 0.24912978376E+00 0.26390098564E+00 0.27768492594E+00 0.28990227759E+00 0.30002960605E+00
 0.30761812651E+00 0.31231929455E+00 0.31391119204E+00 0.31231929455E+00 0.30761812651E+00
 0.30002960605E+00 0.28990227759E+00 0.27768492594E+00 0.26390098564E+00 0.24912978376E+00
 0.23393700106E+00 0.21888437209E+00 0.20450944908E+00 0.19131082352E+00 0.17975512065E+00
 0.17026021991E+00 0.16318913818E+00 0.15882397352E+00 0.17483412410E+00 0.17659000507E+00
 0.18178461064E+00 0.19020993302E+00 0.20153582736E+00 0.21533822421E+00 0.23111557887E+00
 0.24831507398E+00 0.26633538813E+00 0.28454642508E+00 0.30228701503E+00 0.31886790143E+00
 0.33362473856E+00 0.34590849975E+00 0.35514284622E+00 0.36087609707E+00 0.36282067145E+00
 0.36087609707E+00 0.35514284622E+00 0.34590849975E+00 0.33362473856E+00 0.31886790143E+00
 0.30228701503E+00 0.28454642508E+00 0.26633538813E+00 0.24831507398E+00 0.23111557887E+00
 0.21533822421E+00 0.20153582736E+00 0.19020993302E+00 0.18178461064E+00 0.17659000507E+00
 0.19765310366E+00 0.19976440690E+00 0.20602091260E+00 0.21619026753E+00 0.22990294814E+00
 0.24666537788E+00 0.26588815622E+00 0.28689957394E+00 0.30897471957E+00 0.33133629156E+00
 0.35317308262E+00 0.37365814886E+00 0.39193297691E+00 0.40718620960E+00 0.41868875342E+00
 0.42584994992E+00 0.42828162265E+00 0.42584994992E+00 0.41868875342E+00 0.40718620960E+00
 0.39193297691E+00 0.37365814886E+00 0.35317308262E+00 0.33133629156E+00 0.30897471957E+00
 0.28689957394E+00 0.26588815622E+00 0.24666537788E+00 0.22990294814E+00 0.21619026753E+00
 0.20602091260E+00 0.19976440690E+00 0.22593116182E+00 0.22848374168E+00 0.23605866181E+00
 0.24841308770E+00 0.26514161845E+00 0.28568992653E+00 0.30936282577E+00 0.33535501411E+00
 0.36276433932E+00 0.39062667352E+00 0.41792184901E+00 0.44358028775E+00 0.46654477009E+00
 0.48576620043E+00 0.50028826383E+00 0.50933921127E+00 0.51241528522E+00 0.50933921127E+00
 0.50028826383E+00 0.48576620043E+00 0.46654477009E+00 0.44358028775E+00 0.41792184901E+00
 0.39062667352E+00 0.36276433932E+00 0.33535501411E+00 0.30936282577E+00 0.28568992653E+00
 0.26514161845E+00 0.24841308770E+00 0.23605866181E+00 0.22848374168E+00 0.25975130128E+00
 0.26284586058E+00 0.27205026855E+00 0.28711557757E+00 0.30761602307E+00 0.33293205897E+00
 0.36225972371E+00 0.39461915023E+00 0.42889683325E+00 0.46386352079E+00 0.49821353157E+00
 0.53059933012E+00 0.55962335895E+00 0.58394494575E+00 0.60234494861E+00 0.61382641749E+00
 0.61772997335E+00 0.61382641749E+00 0.60234494861E+00 0.58394494575E+00 0.55962335895E+00
 0.53059933012E+00 0.49821353157E+00 0.46386352079E+00 0.42889683325E+00 0.39461915023E+00
 0.36225972371E+00 0.33293205897E+00 0.30761602307E+00 0.28711557757E+00 0.27205026855E+00
 0.26284586058E+00 0.29915209876E+00 0.30291690374E+00 0.31413285757E+00 0.33255717579E+00
 0.35774297976E+00 0.38901087907E+00 0.42542211611E+00 0.46579846657E+00 0.50874294627E+00
 0.55270268172E+00 0.59600269597E+00 0.63687918091E+00 0.67357651676E+00 0.70436307306E+00
 0.72766250579E+00 0.74220092345E+00 0.74714465115E+00 0.74220092345E+00 0.72766250579E+00
 0.70436307306E+00 0.67357651676E+00 0.63687918091E+00 0.59600269597E+00 0.55270268172E+00
 0.50874294627E+00 0.46579846657E+00 0.42542211611E+00 0.38901087907E+00 0.35774297976E+00
 0.33255717579E+00 0.31413285757E+00 0.30291690374E+00 0.34413470580E+00 0.34872381485E+00
 0.36242020539E+00 0.38498178343E+00 0.41594551303E+00 0.45455401999E+00 0.49972076527E+00
 0.55001396752E+00 0.60370838228E+00 0.65882868320E+00 0.71323264944E+00 0.76469039103E+00
 0.81090542696E+00 0.84968188754E+00 0.87903636685E+00 0.89735802093E+00 0.90358792077E+00
 0.89735802093E+00 0.87903636685E+00 0.84968188754E+00 0.81090542696E+00 0.76469039103E+00
 0.71323264944E+00 0.65882868320E+00 0.60370838228E+00 0.55001396752E+00 0.49972076527E+00
 0.45455401999E+00 0.41594551303E+00 0.38498178343E+00 0.36242020539E+00 0.34872381485E+00
 0.39463849024E+00 0.40023610826E+00 0.41695693191E+00 0.44456104381E+00 0.48255078213E+00
 0.53008207015E+00 0.58587952788E+00 0.64822794674E+00 0.71498986111E+00 0.78370366547E+00
 0.85166151581E+00 0.91599391793E+00 0.97384145667E+00 0.10224083079E+01 0.10591732340E+01
 0.10821149795E+01 0.10899155357E+01 0.10821149795E+01 0.10591732340E+01 0.10224083079E+01
 0.97384145667E+00 0.91599391793E+00 0.85166151581E+00 0.78370366547E+00 0.71498986111E+00
 0.64822794674E+00 0.58587952788E+00 0.53008207015E+00 0.48255078213E+00 0.44456104381E+00
 0.41695693191E+00 0.40023610826E+00 0.45049889641E+00 0.45730537412E+00 0.47765583244E+00
 0.51129313634E+00 0.55767664116E+00 0.61584074985E+00 0.68430282364E+00 0.76100251569E+00
 0.84335283107E+00 0.92830067965E+00 0.10124670292E+01 0.10922945929E+01 0.11641166049E+01
 0.12244388187E+01 0.12701187061E+01 0.12986352802E+01 0.13083326448E+01 0.12986352802E+01
 0.12701187061E+01 0.12244388187E+01 0.11641166049E+01 0.10922945929E+01 0.10124670292E+01
 0.92830067965E+00 0.84335283107E+00 0.76100251569E+00 0.68430282364E+00 0.61584074985E+00
 0.55767664116E+00 0.51129313634E+00 0.47765583244E+00 0.45730537412E+00 0.51136779035E+00
 0.51959640656E+00 0.54420120681E+00 0.58490411718E+00 0.64108913841E+00 0.71165759581E+00
 0.79487323171E+00 0.88831560933E+00 0.98886753485E+00 0.10928415592E+01 0.11960886730E+01
 0.12941472246E+01 0.13825358696E+01 0.14568699106E+01 0.15131998094E+01 0.15483648421E+01
 0.15603244102E+01 0.15483648421E+01 0.15131998094E+01 0.14568699106E+01 0.13825358696E+01
 0.12941472246E+01 0.11960886730E+01 0.10928415592E+01 0.98886753485E+00 0.88831560933E+00
 0.79487323171E+00 0.71165759581E+00 0.64108913841E+00 0.58490411718E+00 0.54420120681E+00
 0.51959640656E+00 0.57664629206E+00 0.58649900277E+00 0.61597213037E+00 0.66473857237E+00
 0.73210284757E+00 0.81679461097E+00 0.91682544167E+00 0.10293613579E+01 0.11507555277E+01
 0.12765838577E+01 0.14018294753E+01 0.15211129476E+01 0.16287941400E+01 0.17194547936E+01
 0.17882360424E+01 0.18312239521E+01 0.18458483243E+01 0.18312239521E+01 0.17882360424E+01
 0.17194547936E+01 0.16287941400E+01 0.15211129476E+01 0.14018294753E+01 0.12765838577E+01
 0.11507555277E+01 0.10293613579E+01 0.91682544167E+00 0.81679461097E+00 0.73210284757E+00
 0.66473857237E+00 0.61597213037E+00 0.58649900277E+00 0.64541572932E+00 0.65708167056E+00
 0.69196843609E+00 0.74970748763E+00 0.82949030984E+00 0.92988800733E+00 0.10486233065E+01
 0.11824790586E+01 0.13272049465E+01 0.14776472824E+01 0.16278446373E+01 0.17711823647E+01
 0.19009475505E+01 0.20104810363E+01 0.20937030019E+01 0.21457431427E+01 0.21634558790E+01
 0.21457431427E+01 0.20937030019E+01 0.20104810363E+01 0.19009475505E+01 0.17711823647E+01
 0.16278446373E+01 0.14776472824E+01 0.13272049465E+01 0.11824790586E+01 0.10486233065E+01
 0.92988800733E+00 0.82949030984E+00 0.74970748763E+00 0.69196843609E+00 0.65708167056E+00
 0.71643127922E+00 0.73005379008E+00 0.77080606172E+00 0.83824793990E+00 0.93148238167E+00
 0.10488921263E+01 0.11879606885E+01 0.13450404667E+01 0.15153497378E+01 0.16929013113E+01
 0.18706503210E+01 0.20409569666E+01 0.21954972488E+01 0.23261077767E+01 0.24254784764E+01
 0.24877049629E+01 0.25088976283E+01 0.24877049629E+01 0.24254784764E+01 0.23261077767E+01
 0.21954972488E+01 0.20409569666E+01 0.18706503210E+01 0.16929013113E+01 0.15153497378E+01
 0.13450404667E+01 0.11879606885E+01 0.10488921263E+01 0.93148238167E+00 0.83824793990E+00
 0.77080606172E+00 0.73005379008E+00 0.78811798109E+00 0.80380489371E+00 0.85071508976E+00
 0.92837204903E+00 0.10357619969E+01 0.11711393267E+01 0.13317171737E+01 0.15135171278E+01
 0.17111440250E+01 0.19177872370E+01 0.21255092922E+01 0.23249010142E+01 0.25062833299E+01
 0.26601170860E+01 0.27774675086E+01 0.28510481030E+01 0.28761227772E+01 0.28510481030E+01
 0.27774675086E+01 0.26601170860E+01 0.25062833299E+01 0.23249010142E+01 0.21255092922E+01
 0.19177872370E+01 0.17111440250E+01 0.15135171278E+01 0.13317171737E+01 0.11711393267E+01
 0.10357619969E+01 0.92837204903E+00 0.85071508976E+00 0.80380489371E+00 0.85864551830E+00
 0.87642927507E+00 0.92962199548E+00 0.10176945859E+01 0.11395645382E+01 0.12933506519E+01
 0.14760769377E+01 0.16834165720E+01 0.19093927213E+01 0.21465854217E+01 0.23854163699E+01
 0.26155429509E+01 0.28257688252E+01 0.30043490670E+01 0.31406388199E+01 0.32261172978E+01
 0.32552576512E+01 0.32261172978E+01 0.31406388199E+01 0.30043490670E+01 0.28257688252E+01
 0.26155429509E+01 0.23854163699E+01 0.21465854217E+01 0.19093927213E+01 0.16834165720E+01
 0.14760769377E+01 0.12933506519E+01 0.11395645382E+01 0.10176945859E+01 0.92962199548E+00
 0.87642927507E+00 0.92598006517E+00 0.94581845622E+00 0.10052066466E+01 0.11035413833E+01
 0.12397359784E+01 0.14117637564E+01 0.16165650995E+01 0.18493794453E+01 0.21040031325E+01
 0.23716798826E+01 0.26422781215E+01 0.29040240722E+01 0.31432481959E+01 0.33466848243E+01
 0.35022073905E+01 0.35999359050E+01 0.36332672446E+01 0.35999359050E+01 0.35022073905E+01
 0.33466848243E+01 0.31432481959E+01 0.29040240722E+01 0.26422781215E+01 0.23716798826E+01
 0.21040031325E+01 0.18493794453E+01 0.16165650995E+01 0.14117637564E+01 0.12397359784E+01
 0.11035413833E+01 0.10052066466E+01 0.94581845622E+00 0.98795263522E+00 0.10097672322E+01
 0.10749784642E+01 0.11830758593E+01 0.13328283640E+01 0.15222999371E+01 0.17481201074E+01
 0.20055548593E+01 0.22875512070E+01 0.25848915696E+01 0.28866007839E+01 0.31785238252E+01
 0.34458713815E+01 0.36738377575E+01 0.38485363790E+01 0.39584202921E+01 0.39959378887E+01
 0.39584202921E+01 0.38485363790E+01 0.36738377575E+01 0.34458713815E+01 0.31785238252E+01
 0.28866007839E+01 0.25848915696E+01 0.22875512070E+01 0.20055548593E+01 0.17481201074E+01
 0.15222999371E+01 0.13328283640E+01 0.11830758593E+01 0.10749784642E+01 0.10097672322E+01
 0.10424371489E+01 0.10659974237E+01 0.11364772183E+01 0.12533335409E+01 0.14153713209E+01
 0.16205918334E+01 0.18655780869E+01 0.21454019634E+01 0.24523984506E+01 0.27772350532E+01
 0.31071110000E+01 0.34267983207E+01 0.37203831506E+01 0.39712567097E+01 0.41637085544E+01
 0.42847979555E+01 0.43261452020E+01 0.42847979555E+01 0.41637085544E+01 0.39712567097E+01
 0.37203831506E+01 0.34267983207E+01 0.31071110000E+01 0.27772350532E+01 0.24523984506E+01
 0.21454019634E+01 0.18655780869E+01 0.16205918334E+01 0.14153713209E+01 0.12533335409E+01
 0.11364772183E+01 0.10659974237E+01 0.10873693678E+01 0.11123816627E+01 0.11873015863E+01
 0.13115134464E+01 0.14839300298E+01 0.17024331087E+01 0.19637248017E+01 0.22624685049E+01
 0.25909309628E+01 0.29391352753E+01 0.32929299744E+01 0.36365718163E+01 0.39528308707E+01
 0.42233714202E+01 0.44309114592E+01 0.45615227294E+01 0.46061069200E+01 0.45615227294E+01
 0.44309114592E+01 0.42233714202E+01 0.39528308707E+01 0.36365718163E+01 0.32929299744E+01
 0.29391352753E+01 0.25909309628E+01 0.22624685049E+01 0.19637248017E+01 0.17024331087E+01
 0.14839300298E+01 0.13115134464E+01 0.11873015863E+01 0.11123816627E+01 0.11209241359E+01
 0.11470411592E+01 0.12253188154E+01 0.13551135089E+01 0.15354136470E+01 0.17640346457E+01
 0.20377652186E+01 0.23509456819E+01 0.26959366413E+01 0.30619083194E+01 0.34340736625E+01
 0.37963099406E+01 0.41300015922E+01 0.44155031579E+01 0.46345365139E+01 0.47724115533E+01
 0.48194674268E+01 0.47724115533E+01 0.46345365139E+01 0.44155031579E+01 0.41300015922E+01
 0.37963099406E+01 0.34340736625E+01 0.30619083194E+01 0.26959366413E+01 0.23509456819E+01
 0.20377652186E+01 0.17640346457E+01 0.15354136470E+01 0.13551135089E+01 0.12253188154E+01
 0.11470411592E+01 0.11416691504E+01 0.11684830786E+01 0.12488498769E+01 0.13821429119E+01
 0.15673608474E+01 0.18023396596E+01 0.20838510051E+01 0.24061202552E+01 0.27615079661E+01
 0.31385972287E+01 0.35224120463E+01 0.38963674019E+01 0.42410031089E+01 0.45359045773E+01
 0.47621653595E+01 0.49045868326E+01 0.49531992403E+01 0.49045868326E+01 0.47621653595E+01
 0.45359045773E+01 0.42410031089E+01 0.38963674019E+01 0.35224120463E+01 0.31385972287E+01
 0.27615079661E+01 0.24061202552E+01 0.20838510051E+01 0.18023396596E+01 0.15673608474E+01
 0.13821429119E+01 0.12488498769E+01 0.11684830786E+01 0.11486904515E+01 0.11757405921E+01
 0.12568185476E+01 0.13913017928E+01 0.15781941633E+01 0.18153375146E+01 0.20995026029E+01
 0.24248720501E+01 0.27838097597E+01 0.31646901307E+01 0.35524774881E+01 0.39304658148E+01
 0.42788312338E+01 0.45769135442E+01 0.48056234622E+01 0.49495970549E+01 0.49987411920E+01
 0.49495970549E+01 0.48056234622E+01 0.45769135442E+01 0.42788312338E+01 0.39304658148E+01
 0.35524774881E+01 0.31646901307E+01 0.27838097597E+01 0.24248720501E+01 0.20995026029E+01
 0.18153375146E+01 0.15781941633E+01 0.13913017928E+01 0.12568185476E+01 0.11757405921E+01
 0.11416691504E+01 0.11684830786E+01 0.12488498769E+01 0.13821429119E+01 0.15673608474E+01
 0.18023396596E+01 0.20838510051E+01 0.24061202552E+01 0.27615079661E+01 0.31385972287E+01
 0.35224120463E+01 0.38963674019E+01 0.42410031089E+01 0.45359045773E+01 0.47621653595E+01
 0.49045868326E+01 0.49531992403E+01 0.49045868326E+01 0.47621653595E+01 0.45359045773E+01
 0.42410031089E+01 0.38963674019E+01 0.35224120463E+01 0.31385972287E+01 0.27615079661E+01
 0.24061202552E+01 0.20838510051E+01 0.18023396596E+01 0.15673608474E+01 0.13821429119E+01
 0.12488498769E+01 0.11684830786E+01 0.11209241359E+01 0.11470411592E+01 0.12253188154E+01
 0.13551135089E+01 0.15354136470E+01 0.17640346457E+01 0.20377652186E+01 0.23509456819E+01
 0.26959366413E+01 0.30619083194E+01 0.34340736625E+01 0.37963099406E+01 0.41300015922E+01
 0.44155031579E+01 0.46345365139E+01 0.47724115533E+01 0.48194674268E+01 0.47724115533E+01
 0.46345365139E+01 0.44155031579E+01 0.41300015922E+01 0.37963099406E+01 0.34340736625E+01
 0.30619083194E+01 0.26959366413E+01 0.23509456819E+01 0.20377652186E+01 0.17640346457E+01
 0.15354136470E+01 0.13551135089E+01 0.12253188154E+01 0.11470411592E+01 0.10873693678E+01
 0.11123816627E+01 0.11873015863E+01 0.13115134464E+01 0.14839300298E+01 0.17024331087E+01
 0.19637248017E+01 0.22624685049E+01 0.25909309628E+01 0.29391352753E+01 0.32929299744E+01
 0.36365718163E+01 0.39528308707E+01 0.42233714202E+01 0.44309114592E+01 0.45615227294E+01
 0.46061069200E+01 0.45615227294E+01 0.44309114592E+01 0.42233714202E+01 0.39528308707E+01
 0.36365718163E+01 0.32929299744E+01 0.29391352753E+01 0.25909309628E+01 0.22624685049E+01
 0.19637248017E+01 0.17024331087E+01 0.14839300298E+01 0.13115134464E+01 0.11873015863E+01
 0.11123816627E+01 0.10424371489E+01 0.10659974237E+01 0.11364772183E+01 0.12533335409E+01
 0.14153713209E+01 0.16205918334E+01 0.18655780869E+01 0.21454019634E+01 0.24523984506E+01
 0.27772350532E+01 0.31071110000E+01 0.34267983207E+01 0.37203831506E+01 0.39712567097E+01
 0.41637085544E+01 0.42847979555E+01 0.43261452020E+01 0.42847979555E+01 0.41637085544E+01
 0.39712567097E+01 0.37203831506E+01 0.34267983207E+01 0.31071110000E+01 0.27772350532E+01
 0.24523984506E+01 0.21454019634E+01 0.18655780869E+01 0.16205918334E+01 0.14153713209E+01
 0.12533335409E+01 0.11364772183E+01 0.10659974237E+01 0.98795263522E+00 0.10097672322E+01
 0.10749784642E+01 0.11830758593E+01 0.13328283640E+01 0.15222999371E+01 0.17481201074E+01
 0.20055548593E+01 0.22875512070E+01 0.25848915696E+01 0.28866007839E+01 0.31785238252E+01
 0.34458713815E+01 0.36738377575E+01 0.38485363790E+01 0.39584202921E+01 0.39959378887E+01
 0.39584202921E+01 0.38485363790E+01 0.36738377575E+01 0.34458713815E+01 0.31785238252E+01
 0.28866007839E+01 0.25848915696E+01 0.22875512070E+01 0.20055548593E+01 0.17481201074E+01
 0.15222999371E+01 0.13328283640E+01 0.11830758593E+01 0.10749784642E+01 0.10097672322E+01
 0.92598006517E+00 0.94581845622E+00 0.10052066466E+01 0.11035413833E+01 0.12397359784E+01
 0.14117637564E+01 0.16165650995E+01 0.18493794453E+01 0.21040031325E+01 0.23716798826E+01
 0.26422781215E+01 0.29040240722E+01 0.31432481959E+01 0.33466848243E+01 0.35022073905E+01
 0.35999359050E+01 0.36332672446E+01 0.35999359050E+01 0.35022073905E+01 0.33466848243E+01
 0.31432481959E+01 0.29040240722E+01 0.26422781215E+01 0.23716798826E+01 0.21040031325E+01
 0.18493794453E+01 0.16165650995E+01 0.14117637564E+01 0.12397359784E+01 0.11035413833E+01
 0.10052066466E+01 0.94581845622E+00 0.85864551830E+00 0.87642927507E+00 0.92962199548E+00
 0.10176945859E+01 0.11395645382E+01 0.12933506519E+01 0.14760769377E+01 0.16834165720E+01
 0.19093927213E+01 0.21465854217E+01 0.23854163699E+01 0.26155429509E+01 0.28257688252E+01
 0.30043490670E+01 0.31406388199E+01 0.32261172978E+01 0.32552576512E+01 0.32261172978E+01
 0.31406388199E+01 0.30043490670E+01 0.28257688252E+01 0.26155429509E+01 0.23854163699E+01
 0.21465854217E+01 0.19093927213E+01 0.16834165720E+01 0.14760769377E+01 0.12933506519E+01
 0.11395645382E+01 0.10176945859E+01 0.92962199548E+00 0.87642927507E+00 0.78811798109E+00
 0.80380489371E+00 0.85071508976E+00 0.92837204903E+00 0.10357619969E+01 0.11711393267E+01
 0.13317171737E+01 0.15135171278E+01 0.17111440250E+01 0.19177872370E+01 0.21255092922E+01
 0.23249010142E+01 0.25062833299E+01 0.26601170860E+01 0.27774675086E+01 0.28510481030E+01
 0.28761227772E+01 0.28510481030E+01 0.27774675086E+01 0.26601170860E+01 0.25062833299E+01
 0.23249010142E+01 0.21255092922E+01 0.19177872370E+01 0.17111440250E+01 0.15135171278E+01
 0.13317171737E+01 0.11711393267E+01 0.10357619969E+01 0.92837204903E+00 0.85071508976E+00
 0.80380489371E+00 0.71643127922E+00 0.73005379008E+00 0.77080606172E+00 0.83824793990E+00
 0.93148238167E+00 0.10488921263E+01 0.11879606885E+01 0.13450404667E+01 0.15153497378E+01
 0.16929013113E+01 0.18706503210E+01 0.20409569666E+01 0.21954972488E+01 0.23261077767E+01
 0.24254784764E+01 0.24877049629E+01 0.25088976283E+01 0.24877049629E+01 0.24254784764E+01
 0.23261077767E+01 0.21954972488E+01 0.20409569666E+01 0.18706503210E+01 0.16929013113E+01
 0.15153497378E+01 0.13450404667E+01 0.11879606885E+01 0.10488921263E+01 0.93148238167E+00
 0.83824793990E+00 0.77080606172E+00 0.73005379008E+00 0.64541572932E+00 0.65708167056E+00
 0.69196843609E+00 0.74970748763E+00 0.82949030984E+00 0.92988800733E+00 0.10486233065E+01
 0.11824790586E+01 0.13272049465E+01 0.14776472824E+01 0.16278446373E+01 0.17711823647E+01
 0.19009475505E+01 0.20104810363E+01 0.20937030019E+01 0.21457431427E+01 0.21634558790E+01
 0.21457431427E+01 0.20937030019E+01 0.20104810363E+01 0.19009475505E+01 0.17711823647E+01
 0.16278446373E+01 0.14776472824E+01 0.13272049465E+01 0.11824790586E+01 0.10486233065E+01
 0.92988800733E+00 0.82949030984E+00 0.74970748763E+00 0.69196843609E+00 0.65708167056E+00
 0.57664629206E+00 0.58649900277E+00 0.61597213037E+00 0.66473857237E+00 0.73210284757E+00
 0.81679461097E+00 0.91682544167E+00 0.10293613579E+01 0.11507555277E+01 0.12765838577E+01
 0.14018294753E+01 0.15211129476E+01 0.16287941400E+01 0.17194547936E+01 0.17882360424E+01
 0.18312239521E+01 0.18458483243E+01 0.18312239521E+01 0.17882360424E+01 0.17194547936E+01
 0.16287941400E+01 0.15211129476E+01 0.14018294753E+01 0.12765838577E+01 0.11507555277E+01
 0.10293613579E+01 0.91682544167E+00 0.81679461097E+00 0.73210284757E+00 0.66473857237E+00
 0.61597213037E+00 0.58649900277E+00 0.51136779035E+00 0.51959640656E+00 0.54420120681E+00
 0.58490411718E+00 0.64108913841E+00 0.71165759581E+00 0.79487323171E+00 0.88831560933E+00
 0.98886753485E+00 0.10928415592E+01 0.11960886730E+01 0.12941472246E+01 0.13825358696E+01
 0.14568699106E+01 0.15131998094E+01 0.15483648421E+01 0.15603244102E+01 0.15483648421E+01
 0.15131998094E+01 0.14568699106E+01 0.13825358696E+01 0.12941472246E+01 0.11960886730E+01
 0.10928415592E+01 0.98886753485E+00 0.88831560933E+00 0.79487323171E+00 0.71165759581E+00
 0.64108913841E+00 0.58490411718E+00 0.54420120681E+00 0.51959640656E+00 0.45049889641E+00
 0.45730537412E+00 0.47765583244E+00 0.51129313634E+00 0.55767664116E+00 0.61584074985E+00
 0.68430282364E+00 0.76100251569E+00 0.84335283107E+00 0.92830067965E+00 0.10124670292E+01
 0.10922945929E+01 0.11641166049E+01 0.12244388187E+01 0.12701187061E+01 0.12986352802E+01
 0.13083326448E+01 0.12986352802E+01 0.12701187061E+01 0.12244388187E+01 0.11641166049E+01
 0.10922945929E+01 0.10124670292E+01 0.92830067965E+00 0.84335283107E+00 0.76100251569E+00
 0.68430282364E+00 0.61584074985E+00 0.55767664116E+00 0.51129313634E+00 0.47765583244E+00
 0.45730537412E+00 0.39463849024E+00 0.40023610826E+00 0.41695693191E+00 0.44456104381E+00
 0.48255078213E+00 0.53008207015E+00 0.58587952788E+00 0.64822794674E+00 0.71498986111E+00
 0.78370366547E+00 0.85166151581E+00 0.91599391793E+00 0.97384145667E+00 0.10224083079E+01
 0.10591732340E+01 0.10821149795E+01 0.10899155357E+01 0.10821149795E+01 0.10591732340E+01
 0.10224083079E+01 0.97384145667E+00 0.91599391793E+00 0.85166151581E+00 0.78370366547E+00
 0.71498986111E+00 0.64822794674E+00 0.58587952788E+00 0.53008207015E+00 0.48255078213E+00
 0.44456104381E+00 0.41695693191E+00 0.40023610826E+00 0.34413470580E+00 0.34872381485E+00
 0.36242020539E+00 0.38498178343E+00 0.41594551303E+00 0.45455401999E+00 0.49972076527E+00
 0.55001396752E+00 0.60370838228E+00 0.65882868320E+00 0.71323264944E+00 0.76469039103E+00
 0.81090542696E+00 0.84968188754E+00 0.87903636685E+00 0.89735802093E+00 0.90358792077E+00
 0.89735802093E+00 0.87903636685E+00 0.84968188754E+00 0.81090542696E+00 0.76469039103E+00
 0.71323264944E+00 0.65882868320E+00 0.60370838228E+00 0.55001396752E+00 0.49972076527E+00
 0.45455401999E+00 0.41594551303E+00 0.38498178343E+00 0.36242020539E+00 0.34872381485E+00
 0.29915209876E+00 0.30291690374E+00 0.31413285757E+00 0.33255717579E+00 0.35774297976E+00
 0.38901087907E+00 0.42542211611E+00 0.46579846657E+00 0.50874294627E+00 0.55270268172E+00
 0.59600269597E+00 0.63687918091E+00 0.67357651676E+00 0.70436307306E+00 0.72766250579E+00
 0.74220092345E+00 0.74714465115E+00 0.74220092345E+00 0.72766250579E+00 0.70436307306E+00
 0.67357651676E+00 0.63687918091E+00 0.59600269597E+00 0.55270268172E+00 0.50874294627E+00
 0.46579846657E+00 0.42542211611E+00 0.38901087907E+00 0.35774297976E+00 0.33255717579E+00
 0.31413285757E+00 0.30291690374E+00 0.25975130128E+00 0.26284586058E+00 0.27205026855E+00
 0.28711557757E+00 0.30761602307E+00 0.33293205897E+00 0.36225972371E+00 0.39461915023E+00
 0.42889683325E+00 0.46386352079E+00 0.49821353157E+00 0.53059933012E+00 0.55962335895E+00
 0.58394494575E+00 0.60234494861E+00 0.61382641749E+00 0.61772997335E+00 0.61382641749E+00
 0.60234494861E+00 0.58394494575E+00 0.55962335895E+00 0.53059933012E+00 0.49821353157E+00
 0.46386352079E+00 0.42889683325E+00 0.39461915023E+00 0.36225972371E+00 0.33293205897E+00
 0.30761602307E+00 0.28711557757E+00 0.27205026855E+00 0.26284586058E+00 0.22593116182E+00
 0.22848374168E+00 0.23605866181E+00 0.24841308770E+00 0.26514161845E+00 0.28568992653E+00
 0.30936282577E+00 0.33535501411E+00 0.36276433932E+00 0.39062667352E+00 0.41792184901E+00
 0.44358028775E+00 0.46654477009E+00 0.48576620043E+00 0.50028826383E+00 0.50933921127E+00
 0.51241528522E+00 0.50933921127E+00 0.50028826383E+00 0.48576620043E+00 0.46654477009E+00
 0.44358028775E+00 0.41792184901E+00 0.39062667352E+00 0.36276433932E+00 0.33535501411E+00
 0.30936282577E+00 0.28568992653E+00 0.26514161845E+00 0.24841308770E+00 0.23605866181E+00
 0.22848374168E+00 0.19765310366E+00 0.19976440690E+00 0.20602091260E+00 0.21619026753E+00
 0.22990294814E+00 0.24666537788E+00 0.26588815622E+00 0.28689957394E+00 0.30897471957E+00
 0.33133629156E+00 0.35317308262E+00 0.37365814886E+00 0.39193297691E+00 0.40718620960E+00
 0.41868875342E+00 0.42584994992E+00 0.42828162265E+00 0.42584994992E+00 0.41868875342E+00
 0.40718620960E+00 0.39193297691E+00 0.37365814886E+00 0.35317308262E+00 0.33133629156E+00
 0.30897471957E+00 0.28689957394E+00 0.26588815622E+00 0.24666537788E+00 0.22990294814E+00
 0.21619026753E+00 0.20602091260E+00 0.19976440690E+00 0.17483412410E+00 0.17659000507E+00
 0.18178461064E+00 0.19020993302E+00 0.20153582736E+00 0.21533822421E+00 0.23111557887E+00
 0.24831507398E+00 0.26633538813E+00 0.28454642508E+00 0.30228701503E+00 0.31886790143E+00
 0.33362473856E+00 0.34590849975E+00 0.35514284622E+00 0.36087609707E+00 0.36282067145E+00
 0.36087609707E+00 0.35514284622E+00 0.34590849975E+00 0.33362473856E+00 0.31886790143E+00
 0.30228701503E+00 0.28454642508E+00 0.26633538813E+00 0.24831507398E+00 0.23111557887E+00
 0.21533822421E+00 0.20153582736E+00 0.19020993302E+00 0.18178461064E+00 0.17659000507E+00
 0.15734822499E+00 0.15882397352E+00 0.16318913818E+00 0.17026021991E+00 0.17975512065E+00
 0.19131082352E+00 0.20450944908E+00 0.21888437209E+00 0.23393700106E+00 0.24912978376E+00
 0.26390098564E+00 0.27768492594E+00 0.28990227759E+00 0.30002960605E+00 0.30761812651E+00
 0.31231929455E+00 0.31391119204E+00 0.31231929455E+00 0.30761812651E+00 0.30002960605E+00
 0.28990227759E+00 0.27768492594E+00 0.26390098564E+00 0.24912978376E+00 0.23393700106E+00
 0.21888437209E+00 0.20450944908E+00 0.19131082352E+00 0.17975512065E+00 0.17026021991E+00
 0.16318913818E+00 0.15882397352E+00 0.14503344927E+00 0.14630573182E+00 0.15006701778E+00
 0.15616146723E+00 0.16434559581E+00 0.17431340640E+00 0.18570682666E+00 0.19813159932E+00
 0.21115066591E+00 0.22429713585E+00 0.23707358022E+00 0.24896180422E+00 0.25947971703E+00
 0.26817412596E+00 0.27466464556E+00 0.27867149947E+00 0.28002630875E+00 0.27867149947E+00
 0.27466464556E+00 0.26817412596E+00 0.25947971703E+00 0.24896180422E+00 0.23707358022E+00
 0.22429713585E+00 0.21115066591E+00 0.19813159932E+00 0.18570682666E+00 0.17431340640E+00
 0.16434559581E+00 0.15616146723E+00 0.15006701778E+00 0.14630573182E+00 0.13772772934E+00
 0.13887448319E+00 0.14226746899E+00 0.14776684488E+00 0.15515996536E+00 0.16417441663E+00
 0.17449677240E+00 0.18577052625E+00 0.19760469595E+00 0.20956357135E+00 0.22118308943E+00
 0.23199725616E+00 0.24153650007E+00 0.24939658414E+00 0.25525071106E+00 0.25885963819E+00
 0.26007823012E+00 0.25885963819E+00 0.25525071106E+00 0.24939658414E+00 0.24153650007E+00
 0.23199725616E+00 0.22118308943E+00 0.20956357135E+00 0.19760469595E+00 0.18577052625E+00
 0.17449677240E+00 0.16417441663E+00 0.15515996536E+00 0.14776684488E+00 0.14226746899E+00
 0.13887448319E+00 0.14878100730E+00 0.15006727703E+00 0.15387271953E+00 0.16003936361E+00
 0.16832733021E+00 0.17843022695E+00 0.18999761537E+00 0.20263312828E+00 0.21590407131E+00
 0.22932754917E+00 0.24238774240E+00 0.25456243799E+00 0.26531997288E+00 0.27419853014E+00
 0.28082075038E+00 0.28490748700E+00 0.28628814742E+00 0.28490748700E+00 0.28082075038E+00
 0.27419853014E+00 0.26531997288E+00 0.25456243799E+00 0.24238774240E+00 0.22932754917E+00
 0.21590407131E+00 0.20263312828E+00 0.18999761537E+00 0.17843022695E+00 0.16832733021E+00
 0.16003936361E+00 0.15387271953E+00 0.15006727703E+00 0.15156274980E+00 0.15289888090E+00
 0.15684910616E+00 0.16325084341E+00 0.17185039631E+00 0.18233039629E+00 0.19432023703E+00
 0.20741213603E+00 0.22115069570E+00 0.23504542603E+00 0.24856745324E+00 0.26116166664E+00
 0.27231121058E+00 0.28152934380E+00 0.28840950739E+00 0.29265551929E+00 0.29409091766E+00
 0.29265551929E+00 0.28840950739E+00 0.28152934380E+00 0.27231121058E+00 0.26116166664E+00
 0.24856745324E+00 0.23504542603E+00 0.22115069570E+00 0.20741213603E+00 0.19432023703E+00
 0.18233039629E+00 0.17185039631E+00 0.16325084341E+00 0.15684910616E+00 0.15289888090E+00
 0.15995800739E+00 0.16143977473E+00 0.16582274208E+00 0.17292258818E+00 0.18245769326E+00
 0.19406738704E+00 0.20733875831E+00 0.22180975810E+00 0.23698393058E+00 0.25231874845E+00
 0.26724193531E+00 0.28117386224E+00 0.29351906127E+00 0.30374511753E+00 0.31140091393E+00
 0.31614001227E+00 0.31774392187E+00 0.31614001227E+00 0.31140091393E+00 0.30374511753E+00
 0.29351906127E+00 0.28117386224E+00 0.26724193531E+00 0.25231874845E+00 0.23698393058E+00
 0.22180975810E+00 0.20733875831E+00 0.19406738704E+00 0.18245769326E+00 0.17292258818E+00