   2   2   0   0
  0.1200000E+02  0.2000000E-09  0.3000000E-09  0.4000000E-09  0.5000000E-15
   1.0000000000000000E-004
  CAR 
 unknown system                          
     22.92077768    -25.78116078  301      2.19443427      1.00000000
    -25.781  0.0000E+00  0.0000E+00
    -25.619  0.0000E+00  0.0000E+00
    -25.456  0.0000E+00  0.0000E+00
    -25.294  0.0000E+00  0.0000E+00
    -25.132  0.0000E+00  0.0000E+00
    -24.969  0.0000E+00  0.0000E+00
    -24.807  0.0000E+00  0.0000E+00
    -24.645  0.0000E+00  0.0000E+00
    -24.482 -0.1386E-37 -0.2250E-38
    -24.320 -0.6524E-26 -0.1059E-26
    -24.158 -0.1437E-16 -0.2332E-17
    -23.995 -0.1562E-09 -0.2535E-10
    -23.833 -0.6893E-05 -0.1119E-05
    -23.671 -0.3409E-03 -0.5646E-04
    -23.508  0.1163E-01  0.1831E-02
    -23.346  0.1086E-02  0.2008E-02
    -23.184 -0.4651E-04  0.2000E-02
    -23.021 -0.5025E-08  0.2000E-02
    -22.859 -0.2060E-14  0.2000E-02
    -22.697  0.0000E+00  0.2000E-02
    -22.534  0.0000E+00  0.2000E-02
    -22.372  0.0000E+00  0.2000E-02
    -22.210  0.0000E+00  0.2000E-02
    -22.047  0.0000E+00  0.2000E-02
    -21.885  0.0000E+00  0.2000E-02
    -21.723  0.0000E+00  0.2000E-02
    -21.560  0.0000E+00  0.2000E-02
    -21.398  0.0000E+00  0.2000E-02
    -21.236  0.0000E+00  0.2000E-02
    -21.073  0.0000E+00  0.2000E-02
    -20.911  0.0000E+00  0.2000E-02
    -20.749  0.0000E+00  0.2000E-02
    -20.586  0.0000E+00  0.2000E-02
    -20.424  0.0000E+00  0.2000E-02
    -20.262  0.0000E+00  0.2000E-02
    -20.099  0.0000E+00  0.2000E-02
    -19.937  0.0000E+00  0.2000E-02
    -19.775  0.0000E+00  0.2000E-02
    -19.612  0.0000E+00  0.2000E-02
    -19.450  0.0000E+00  0.2000E-02
    -19.288  0.0000E+00  0.2000E-02
    -19.125  0.0000E+00  0.2000E-02
    -18.963  0.0000E+00  0.2000E-02
    -18.801  0.0000E+00  0.2000E-02
    -18.638  0.0000E+00  0.2000E-02
    -18.476  0.0000E+00  0.2000E-02
    -18.314  0.0000E+00  0.2000E-02
    -18.151  0.0000E+00  0.2000E-02
    -17.989  0.0000E+00  0.2000E-02
    -17.827  0.0000E+00  0.2000E-02
    -17.664  0.0000E+00  0.2000E-02
    -17.502  0.0000E+00  0.2000E-02
    -17.339  0.0000E+00  0.2000E-02
    -17.177  0.0000E+00  0.2000E-02
    -17.015  0.0000E+00  0.2000E-02
    -16.852  0.0000E+00  0.2000E-02
    -16.690  0.0000E+00  0.2000E-02
    -16.528  0.0000E+00  0.2000E-02
    -16.365  0.0000E+00  0.2000E-02
    -16.203  0.0000E+00  0.2000E-02
    -16.041  0.0000E+00  0.2000E-02
    -15.878  0.0000E+00  0.2000E-02
    -15.716  0.0000E+00  0.2000E-02
    -15.554  0.0000E+00  0.2000E-02
    -15.391  0.0000E+00  0.2000E-02
    -15.229  0.0000E+00  0.2000E-02
    -15.067  0.0000E+00  0.2000E-02
    -14.904  0.0000E+00  0.2000E-02
    -14.742  0.0000E+00  0.2000E-02
    -14.580  0.0000E+00  0.2000E-02
    -14.417  0.0000E+00  0.2000E-02
    -14.255  0.0000E+00  0.2000E-02
    -14.093  0.0000E+00  0.2000E-02
    -13.930  0.0000E+00  0.2000E-02
    -13.768  0.0000E+00  0.2000E-02
    -13.606  0.0000E+00  0.2000E-02
    -13.443  0.0000E+00  0.2000E-02
    -13.281  0.0000E+00  0.2000E-02
    -13.119  0.0000E+00  0.2000E-02
    -12.956  0.0000E+00  0.2000E-02
    -12.794  0.0000E+00  0.2000E-02
    -12.632  0.0000E+00  0.2000E-02
    -12.469  0.0000E+00  0.2000E-02
    -12.307  0.0000E+00  0.2000E-02
    -12.145  0.0000E+00  0.2000E-02
    -11.982  0.0000E+00  0.2000E-02
    -11.820  0.0000E+00  0.2000E-02
    -11.658  0.0000E+00  0.2000E-02
    -11.495  0.0000E+00  0.2000E-02
    -11.333 -0.6018E-33  0.2000E-02
    -11.171 -0.3881E-22  0.2000E-02
    -11.008 -0.1173E-13  0.2000E-02
    -10.846 -0.1646E-07  0.2000E-02
    -10.684 -0.8378E-04  0.1986E-02
    -10.521  0.2221E-02  0.2347E-02
    -10.359  0.1062E-01  0.4071E-02
    -10.197 -0.4324E-03  0.4000E-02
    -10.034 -0.3019E-05  0.4000E-02
     -9.872 -0.3870E-10  0.4000E-02
     -9.710 -0.2736E-17  0.4000E-02
     -9.547  0.0000E+00  0.4000E-02
     -9.385  0.0000E+00  0.4000E-02
     -9.223  0.0000E+00  0.4000E-02
     -9.060  0.0000E+00  0.4000E-02
     -8.898  0.0000E+00  0.4000E-02
     -8.735  0.0000E+00  0.4000E-02
     -8.573  0.0000E+00  0.4000E-02
     -8.411  0.0000E+00  0.4000E-02
     -8.248  0.0000E+00  0.4000E-02
     -8.086  0.0000E+00  0.4000E-02
     -7.924  0.0000E+00  0.4000E-02
     -7.761  0.0000E+00  0.4000E-02
     -7.599  0.0000E+00  0.4000E-02
     -7.437 -0.7462E-33  0.4000E-02
     -7.274 -0.4617E-22  0.4000E-02
     -7.112 -0.1338E-13  0.4000E-02
     -6.950 -0.1800E-07  0.4000E-02
     -6.787 -0.8741E-04  0.3986E-02
     -6.625  0.2322E-02  0.4363E-02
     -6.463  0.1052E-01  0.6071E-02
     -6.300 -0.4336E-03  0.6000E-02
     -6.138 -0.2826E-05  0.6000E-02
     -5.976 -0.3467E-10  0.6000E-02
     -5.813 -0.2736E-17  0.6000E-02
     -5.651 -0.1536E-15  0.6000E-02
     -5.489 -0.8260E-09  0.6000E-02
     -5.326 -0.1775E-04  0.5997E-02
     -5.164  0.5889E-04  0.6007E-02
     -5.002  0.1214E-01  0.7978E-02
     -4.839  0.1546E-03  0.8003E-02
     -4.677 -0.2027E-04  0.8000E-02
     -4.515 -0.1052E-08  0.8000E-02
     -4.352 -0.3590E-15  0.8000E-02
     -4.190 -0.7860E-09  0.8000E-02
     -4.028 -0.1727E-04  0.7997E-02
     -3.865  0.4063E-04  0.8004E-02
     -3.703  0.1214E-01  0.9975E-02
     -3.541  0.1755E-03  0.1000E-01
     -3.378 -0.2082E-04  0.1000E-01
     -3.216 -0.1104E-08  0.1000E-01
     -3.054 -0.2325E-15  0.1000E-01
     -2.891  0.0000E+00  0.1000E-01
     -2.729  0.0000E+00  0.1000E-01
     -2.567  0.0000E+00  0.1000E-01
     -2.404  0.0000E+00  0.1000E-01
     -2.242  0.0000E+00  0.1000E-01
     -2.080  0.0000E+00  0.1000E-01
     -1.917  0.0000E+00  0.1000E-01
     -1.755  0.0000E+00  0.1000E-01
     -1.593  0.0000E+00  0.1000E-01
     -1.430  0.0000E+00  0.1000E-01
     -1.268  0.0000E+00  0.1000E-01
     -1.106  0.0000E+00  0.1000E-01
     -0.943  0.0000E+00  0.1000E-01
     -0.781  0.0000E+00  0.1000E-01
     -0.618  0.0000E+00  0.1000E-01
     -0.456  0.0000E+00  0.1000E-01
     -0.294  0.0000E+00  0.1000E-01
     -0.131  0.0000E+00  0.1000E-01
      0.031  0.0000E+00  0.1000E-01
      0.193  0.0000E+00  0.1000E-01
      0.356  0.0000E+00  0.1000E-01
      0.518  0.0000E+00  0.1000E-01
      0.680  0.0000E+00  0.1000E-01
      0.843  0.0000E+00  0.1000E-01
      1.005  0.0000E+00  0.1000E-01
      1.167  0.0000E+00  0.1000E-01
      1.330 -0.9869E-34  0.1000E-01
      1.492 -0.9003E-23  0.1000E-01
      1.654 -0.3861E-14  0.1000E-01
      1.817 -0.7727E-08  0.1000E-01
      1.979 -0.5784E-04  0.9991E-02
      2.141  0.1451E-02  0.1023E-01
      2.304  0.1132E-01  0.1206E-01
      2.466 -0.8222E-03  0.1193E-01
      2.628  0.1071E-01  0.1367E-01
      2.791  0.2117E-02  0.1401E-01
      2.953 -0.8014E-04  0.1400E-01
      3.115 -0.1501E-07  0.1400E-01
      3.278 -0.1023E-13  0.1400E-01
      3.440  0.0000E+00  0.1400E-01
      3.602  0.0000E+00  0.1400E-01
      3.765  0.0000E+00  0.1400E-01
      3.927  0.0000E+00  0.1400E-01
      4.089  0.0000E+00  0.1400E-01
      4.252  0.0000E+00  0.1400E-01
      4.414  0.0000E+00  0.1400E-01
      4.576  0.0000E+00  0.1400E-01
      4.739  0.0000E+00  0.1400E-01
      4.901  0.0000E+00  0.1400E-01
      5.063  0.0000E+00  0.1400E-01
      5.226  0.0000E+00  0.1400E-01
      5.388  0.0000E+00  0.1400E-01
      5.550  0.0000E+00  0.1400E-01
      5.713  0.0000E+00  0.1400E-01
      5.875  0.0000E+00  0.1400E-01
      6.037  0.0000E+00  0.1400E-01
      6.200  0.0000E+00  0.1400E-01
      6.362  0.0000E+00  0.1400E-01
      6.524  0.0000E+00  0.1400E-01
      6.687  0.0000E+00  0.1400E-01
      6.849  0.0000E+00  0.1400E-01
      7.011  0.0000E+00  0.1400E-01
      7.174  0.0000E+00  0.1400E-01
      7.336  0.0000E+00  0.1400E-01
      7.498  0.0000E+00  0.1400E-01
      7.661  0.0000E+00  0.1400E-01
      7.823  0.0000E+00  0.1400E-01
      7.986  0.0000E+00  0.1400E-01
      8.148  0.0000E+00  0.1400E-01
      8.310  0.0000E+00  0.1400E-01
      8.473  0.0000E+00  0.1400E-01
      8.635  0.0000E+00  0.1400E-01
      8.797  0.0000E+00  0.1400E-01
      8.960  0.0000E+00  0.1400E-01
      9.122  0.0000E+00  0.1400E-01
      9.284  0.0000E+00  0.1400E-01
      9.447  0.0000E+00  0.1400E-01
      9.609  0.0000E+00  0.1400E-01
      9.771  0.0000E+00  0.1400E-01
      9.934  0.0000E+00  0.1400E-01
     10.096  0.0000E+00  0.1400E-01
     10.258  0.0000E+00  0.1400E-01
     10.421  0.0000E+00  0.1400E-01
     10.583  0.0000E+00  0.1400E-01
     10.745  0.0000E+00  0.1400E-01
     10.908 -0.2826E-34  0.1400E-01
     11.070 -0.3268E-23  0.1400E-01
     11.232 -0.1780E-14  0.1400E-01
     11.395 -0.4542E-08  0.1400E-01
     11.557 -0.4416E-04  0.1399E-01
     11.719  0.1008E-02  0.1416E-01
     11.882  0.1169E-01  0.1605E-01
     12.044 -0.3256E-03  0.1600E-01
     12.206 -0.7362E-05  0.1600E-01
     12.369 -0.1749E-09  0.1600E-01
     12.531 -0.1642E-16  0.1600E-01
     12.693 -0.6393E-12  0.1600E-01
     12.856 -0.2323E-06  0.1600E-01
     13.018 -0.2566E-03  0.1596E-01
     13.180  0.6156E-02  0.1696E-01
     13.343  0.6705E-02  0.1805E-01
     13.505 -0.2848E-03  0.1800E-01
     13.667 -0.3156E-06  0.1800E-01
     13.830 -0.1029E-11  0.1800E-01
     13.992  0.0000E+00  0.1800E-01
     14.154  0.0000E+00  0.1800E-01
     14.317  0.0000E+00  0.1800E-01
     14.479  0.0000E+00  0.1800E-01
     14.641  0.0000E+00  0.1800E-01
     14.804  0.0000E+00  0.1800E-01
     14.966 -0.4935E-35  0.1800E-01
     15.128 -0.7920E-24  0.1800E-01
     15.291 -0.6002E-15  0.1800E-01
     15.453 -0.2141E-08  0.1800E-01
     15.615 -0.2977E-04  0.1800E-01
     15.778  0.5065E-03  0.1808E-01
     15.940  0.1202E-01  0.2003E-01
     16.103 -0.1681E-03  0.2000E-01
     16.265 -0.1176E-04  0.2000E-01
     16.427 -0.3962E-09  0.2000E-01
     16.590 -0.5471E-16  0.2000E-01
     16.752  0.0000E+00  0.2000E-01
     16.914  0.0000E+00  0.2000E-01
     17.077  0.0000E+00  0.2000E-01
     17.239  0.0000E+00  0.2000E-01
     17.401  0.0000E+00  0.2000E-01
     17.564  0.0000E+00  0.2000E-01
     17.726  0.0000E+00  0.2000E-01
     17.888  0.0000E+00  0.2000E-01
     18.051  0.0000E+00  0.2000E-01
     18.213  0.0000E+00  0.2000E-01
     18.375  0.0000E+00  0.2000E-01
     18.538  0.0000E+00  0.2000E-01
     18.700  0.0000E+00  0.2000E-01
     18.862 -0.8411E-40  0.2000E-01
     19.025 -0.9775E-28  0.2000E-01
     19.187 -0.5586E-18  0.2000E-01
     19.349 -0.1455E-10  0.2000E-01
     19.512 -0.1667E-05  0.2000E-01
     19.674 -0.4231E-03  0.1993E-01
     19.836  0.9686E-02  0.2150E-01
     19.999  0.3179E-02  0.2202E-01
     20.161 -0.1199E-03  0.2200E-01
     20.323 -0.4066E-07  0.2200E-01
     20.486 -0.4651E-04  0.2199E-01
     20.648  0.1086E-02  0.2217E-01
     20.810  0.1163E-01  0.2406E-01
     20.973 -0.3409E-03  0.2400E-01
     21.135 -0.6893E-05  0.2400E-01
     21.297 -0.1562E-09  0.2400E-01
     21.460 -0.1641E-16  0.2400E-01
     21.622  0.0000E+00  0.2400E-01
     21.784  0.0000E+00  0.2400E-01
     21.947  0.0000E+00  0.2400E-01
     22.109  0.0000E+00  0.2400E-01
     22.271  0.0000E+00  0.2400E-01
     22.434  0.0000E+00  0.2400E-01
     22.596  0.0000E+00  0.2400E-01
     22.758  0.0000E+00  0.2400E-01
     22.921  0.0000E+00  0.2400E-01
