    2    2 1000    1
  0.1200000E+02  0.2000000E-09  0.3000000E-09  0.4000000E-09  0.5000000E-15
   1.0000000000000000E-004
  CAR 
 unknown system                          
     11      1     12

  0.2500000E+00  0.2500000E+00  0.1262379E-14  0.1000000E+01
      1        -23.567436   1.000000
      2        -10.478658   1.000000
      3         -6.583772   1.000000
      4         -5.081296   1.000000
      5         -3.781949   1.000000
      6          2.194434   0.500000
      7          2.584426  -0.000000
      8         11.779730   0.000000
      9         13.182889   0.000000
     10         15.848238   0.000000
     11         19.804928   0.000000
     12         20.707053   0.000000
