       N       E                     dE             d eps       ncg     rms          rms(c)
DAV:   1     0.745057358775E+02    0.74506E+02   -0.55844E+03    24   0.855E+02
DAV:   2    -0.847996178618E+01   -0.82986E+02   -0.80707E+02    28   0.277E+02
DAV:   3    -0.108881472024E+02   -0.24082E+01   -0.24064E+01    24   0.481E+01
DAV:   4    -0.109007248113E+02   -0.12578E-01   -0.12577E-01    32   0.412E+00
DAV:   5    -0.109008700155E+02   -0.14520E-03   -0.14520E-03    24   0.388E-01    0.639E+01
RMM:   6    -0.106215313181E+02    0.27934E+00   -0.34399E-01    24   0.579E+00    0.424E+01
RMM:   7    -0.112536259569E+02   -0.63209E+00   -0.71015E-01    25   0.798E+00    0.117E+01
RMM:   8    -0.104955755337E+02    0.75805E+00   -0.38412E-01    24   0.644E+00    0.164E+00
RMM:   9    -0.104883237992E+02    0.72517E-02   -0.24764E-02    24   0.122E+00    0.820E-01
RMM:  10    -0.104856960143E+02    0.26278E-02   -0.21410E-03    24   0.532E-01    0.230E-01
RMM:  11    -0.104856231869E+02    0.72827E-04   -0.23019E-04    24   0.164E-01    0.975E-02
RMM:  12    -0.104856145492E+02    0.86377E-05   -0.41374E-05    24   0.730E-02    0.155E-02
RMM:  13    -0.104856151153E+02   -0.56611E-06   -0.56880E-06    24   0.305E-02
   1 F= -.10485615E+02 E0= -.10476212E+02  d E =-.104856E+02
       N       E                     dE             d eps       ncg     rms          rms(c)
DAV:   1    -0.829120793752E+01    0.21944E+01   -0.27636E+02    24   0.147E+02    0.463E+01
RMM:   2    -0.947205571927E+01   -0.11808E+01   -0.50102E+00    24   0.232E+01    0.301E+01
RMM:   3    -0.106516309165E+02   -0.11796E+01   -0.25876E+00    24   0.162E+01    0.289E+01
RMM:   4    -0.880549793423E+01    0.18461E+01   -0.27233E-01    24   0.643E+00    0.841E+00
RMM:   5    -0.819411508528E+01    0.61138E+00   -0.12858E-01    24   0.328E+00    0.899E-01
RMM:   6    -0.819046033656E+01    0.36547E-02   -0.10174E-02    24   0.118E+00    0.513E-01
RMM:   7    -0.819336484650E+01   -0.29045E-02   -0.28668E-03    24   0.529E-01    0.900E-01
RMM:   8    -0.819001027706E+01    0.33546E-02   -0.12809E-03    24   0.394E-01    0.277E-01
RMM:   9    -0.818947231238E+01    0.53796E-03   -0.15281E-04    24   0.155E-01    0.590E-02
RMM:  10    -0.818945244951E+01    0.19863E-04   -0.23829E-05    24   0.602E-02    0.209E-02
RMM:  11    -0.818945423718E+01   -0.17877E-05   -0.40839E-06    21   0.262E-02    0.173E-02
RMM:  12    -0.818945279936E+01    0.14378E-05   -0.90230E-07    17   0.129E-02    0.622E-03
RMM:  13    -0.818945247400E+01    0.32536E-06   -0.16761E-07    15   0.501E-03
   2 F= -.81894525E+01 E0= -.81800496E+01  d E =0.229616E+01
       N       E                     dE             d eps       ncg     rms          rms(c)
DAV:   1    -0.979159179896E+01   -0.16021E+01   -0.79730E+01    24   0.805E+01    0.284E+01
RMM:   2    -0.100118508180E+02   -0.22026E+00   -0.25796E+00    24   0.141E+01    0.123E+01
RMM:   3    -0.103573277986E+02   -0.34548E+00   -0.45351E-01    24   0.733E+00    0.108E+01
RMM:   4    -0.996708519773E+01    0.39024E+00   -0.15228E-01    24   0.443E+00    0.363E+00
RMM:   5    -0.996683602049E+01    0.24918E-03   -0.11046E-02    24   0.143E+00    0.916E-01
RMM:   6    -0.996645903413E+01    0.37699E-03   -0.21327E-03    24   0.588E-01    0.417E-01
RMM:   7    -0.996648424046E+01   -0.25206E-04   -0.35761E-04    24   0.250E-01    0.199E-01
RMM:   8    -0.996648692296E+01   -0.26825E-05   -0.65078E-05    24   0.112E-01    0.122E-01
RMM:   9    -0.996648662464E+01    0.29832E-06   -0.18301E-05    24   0.521E-02    0.205E-02
RMM:  10    -0.996648684058E+01   -0.21593E-06   -0.27212E-06    19   0.204E-02
   3 F= -.99664868E+01 E0= -.99570838E+01  d E =0.519128E+00
       N       E                     dE             d eps       ncg     rms          rms(c)
DAV:   1    -0.105117775774E+02   -0.54529E+00   -0.17506E+01    24   0.391E+01    0.171E+01
RMM:   2    -0.105552018603E+02   -0.43424E-01   -0.79633E-01    24   0.872E+00    0.979E+00
RMM:   3    -0.105891650675E+02   -0.33963E-01   -0.11666E-01    24   0.379E+00    0.529E+00
RMM:   4    -0.105598609416E+02    0.29304E-01   -0.47124E-02    24   0.243E+00    0.187E+00
RMM:   5    -0.105493411030E+02    0.10520E-01   -0.65729E-03    24   0.105E+00    0.668E-01
RMM:   6    -0.105493293759E+02    0.11727E-04   -0.64053E-04    24   0.323E-01    0.271E-01
RMM:   7    -0.105493204243E+02    0.89516E-05   -0.66658E-05    24   0.113E-01    0.155E-01
RMM:   8    -0.105493208982E+02   -0.47397E-06   -0.14057E-05    24   0.495E-02    0.434E-02
RMM:   9    -0.105493202766E+02    0.62167E-06   -0.44610E-06    24   0.259E-02
   4 F= -.10549320E+02 E0= -.10539917E+02  d E =-.637052E-01
       N       E                     dE             d eps       ncg     rms          rms(c)
DAV:   1    -0.105897644060E+02   -0.40444E-01   -0.97999E-01    24   0.943E+00    0.393E+00
RMM:   2    -0.105915627632E+02   -0.17984E-02   -0.46922E-02    24   0.229E+00    0.253E+00
RMM:   3    -0.105928505508E+02   -0.12878E-02   -0.65915E-03    24   0.900E-01    0.127E+00
RMM:   4    -0.105920420152E+02    0.80854E-03   -0.27478E-03    24   0.577E-01    0.422E-01
RMM:   5    -0.105911659139E+02    0.87610E-03   -0.45190E-04    24   0.269E-01    0.121E-01
RMM:   6    -0.105911645648E+02    0.13491E-05   -0.36882E-05    24   0.760E-02    0.554E-02
RMM:   7    -0.105911641414E+02    0.42339E-06   -0.27934E-06    19   0.238E-02
   5 F= -.10591164E+02 E0= -.10581761E+02  d E =-.105549E+00
       N       E                     dE             d eps       ncg     rms          rms(c)
DAV:   1    -0.105926490584E+02   -0.14845E-02   -0.53132E-02    24   0.218E+00    0.900E-01
RMM:   2    -0.105927141222E+02   -0.65064E-04   -0.23698E-03    24   0.526E-01    0.587E-01
RMM:   3    -0.105927670790E+02   -0.52957E-04   -0.32783E-04    24   0.201E-01    0.284E-01
RMM:   4    -0.105927407847E+02    0.26294E-04   -0.13881E-04    24   0.128E-01    0.963E-02
RMM:   5    -0.105926900729E+02    0.50712E-04   -0.24122E-05    24   0.618E-02    0.238E-02
RMM:   6    -0.105926899383E+02    0.13454E-06   -0.19111E-06    18   0.170E-02
   6 F= -.10592690E+02 E0= -.10583287E+02  d E =-.107075E+00
       N       E                     dE             d eps       ncg     rms          rms(c)
DAV:   1    -0.105926941945E+02   -0.41216E-05   -0.14664E-04    24   0.115E-01    0.474E-02
RMM:   2    -0.105926943725E+02   -0.17799E-06   -0.57585E-06    21   0.254E-02
   7 F= -.10592694E+02 E0= -.10583291E+02  d E =-.107079E+00
