<?xml version="1.0" encoding="ISO-8859-1"?>
<modeling>
 <generator>
  <i name="program" type="string">vasp </i>
  <i name="version" type="string">6.4.3  </i>
  <i name="subversion" type="string">19Mar24 (build Jun 11 2024 09:57:22) complex                          parallel </i>
  <i name="platform" type="string">LinuxGNU </i>
  <i name="date" type="string">2024 07 25 </i>
  <i name="time" type="string">11:26:11 </i>
 </generator>
 <incar>
  <i type="string" name="PREC">Accurate</i>
  <i type="string" name="ALGO">FAST</i>
  <i type="logical" name="ADDGRID"> T  </i>
  <i type="int" name="ISPIN">     1</i>
  <i type="int" name="IBRION">     2</i>
  <i name="EDIFF">      0.00000100</i>
  <i name="EDIFFG">     -0.01000000</i>
  <i type="int" name="NSW">  1000</i>
  <i name="ENCUT">    600.00000000</i>
  <i type="string" name="LREAL">Auto</i>
  <i type="int" name="ISMEAR">     1</i>
  <i name="SIGMA">      0.10000000</i>
  <i type="logical" name="LWAVE"> F  </i>
  <i type="logical" name="LCHARG"> T  </i>
 </incar>
 <primitive_cell>
  <structure name="primitive_cell" >
   <crystal>
    <varray name="basis" >
     <v>       2.00000000       0.00000000       0.00000000 </v>
     <v>       0.00000000       3.00000000       0.00000000 </v>
     <v>       0.00000000       0.00000000       4.00000000 </v>
    </varray>
    <i name="volume">     24.00000000 </i>
    <varray name="rec_basis" >
     <v>       0.50000000       0.00000000       0.00000000 </v>
     <v>       0.00000000       0.33333333       0.00000000 </v>
     <v>       0.00000000       0.00000000       0.25000000 </v>
    </varray>
   </crystal>
   <varray name="positions" >
    <v>       0.50000000       0.50000000       0.56044028 </v>
    <v>       0.50000000       0.50000000       0.26193626 </v>
   </varray>
  </structure>
  <varray name="primitive_index" >
   <v type="int" >        1 </v>
   <v type="int" >        2 </v>
  </varray>
 </primitive_cell>
 <kpoints>
  <generation param="Monkhorst-Pack">
   <v type="int" name="divisions">       2        2        1 </v>
   <v name="usershift">      0.00000000       0.00000000       0.00000000 </v>
   <v name="genvec1">      0.50000000       0.00000000       0.00000000 </v>
   <v name="genvec2">      0.00000000       0.50000000       0.00000000 </v>
   <v name="genvec3">      0.00000000       0.00000000       1.00000000 </v>
   <v name="shift">      0.50000000       0.50000000       0.00000000 </v>
  </generation>
  <varray name="kpointlist" >
   <v>       0.25000000       0.25000000       0.00000000 </v>
  </varray>
  <varray name="weights" >
   <v>       1.00000000 </v>
  </varray>
 </kpoints>
 <parameters>
  <separator name="general" >
   <i type="string" name="SYSTEM">unknown system</i>
   <i type="logical" name="LCOMPAT"> F  </i>
  </separator>
  <separator name="electronic" >
   <i type="string" name="PREC">accura</i>
   <i name="ENMAX">    600.00000000</i>
   <i name="ENAUG">    412.35200000</i>
   <i name="EDIFF">      0.00000100</i>
   <i type="int" name="IALGO">    68</i>
   <i type="int" name="IWAVPR">    11</i>
   <i type="int" name="NBANDS">    12</i>
   <i type="int" name="NBANDSLOW">    -1</i>
   <i type="int" name="NBANDSHIGH">    -1</i>
   <i name="NELECT">     11.00000000</i>
   <i type="int" name="TURBO">     0</i>
   <i type="int" name="IRESTART">     0</i>
   <i type="int" name="NREBOOT">     0</i>
   <i type="int" name="NMIN">     0</i>
   <i name="EREF">      0.00000000</i>
   <separator name="electronic smearing" >
    <i type="int" name="ISMEAR">     1</i>
    <i name="SIGMA">      0.10000000</i>
    <i name="KSPACING">      0.50000000</i>
    <i type="logical" name="KGAMMA"> T  </i>
    <i type="logical" name="KBLOWUP"> T  </i>
   </separator>
   <separator name="electronic projectors" >
    <i type="logical" name="LREAL"> T  </i>
    <v name="ROPT">     -0.00025000     -0.00025000</v>
    <i type="int" name="LMAXPAW">  -100</i>
    <i type="int" name="LMAXMIX">     2</i>
    <i type="logical" name="NLSPLINE"> F  </i>
   </separator>
   <separator name="electronic startup" >
    <i type="int" name="ISTART">     0</i>
    <i type="int" name="ICHARG">     2</i>
    <i type="int" name="INIWAV">     1</i>
   </separator>
   <separator name="electronic spin" >
    <i type="int" name="ISPIN">     1</i>
    <i type="logical" name="LNONCOLLINEAR"> F  </i>
    <v name="MAGMOM">      1.00000000      1.00000000</v>
    <i name="NUPDOWN">     -1.00000000</i>
    <i type="logical" name="LSORBIT"> F  </i>
    <v name="SAXIS">      0.00000000      0.00000000      1.00000000</v>
    <i type="logical" name="LSPIRAL"> F  </i>
    <v name="QSPIRAL">      0.00000000      0.00000000      0.00000000</v>
    <i type="logical" name="LZEROZ"> F  </i>
   </separator>
   <separator name="electronic exchange-correlation" >
    <i type="logical" name="LASPH"> F  </i>
   </separator>
   <separator name="electronic convergence" >
    <i type="int" name="NELM">    60</i>
    <i type="int" name="NELMDL">    -5</i>
    <i type="int" name="NELMIN">     2</i>
    <i name="ENINI">    600.00000000</i>
    <separator name="electronic convergence detail" >
     <i type="logical" name="LDIAG"> T  </i>
     <i type="logical" name="LSUBROT"> F  </i>
     <i name="WEIMIN">      0.00100000</i>
     <i name="EBREAK">      0.00000002</i>
     <i name="DEPER">      0.30000000</i>
     <i type="int" name="NRMM">     4</i>
     <i name="TIME">      0.40000000</i>
    </separator>
   </separator>
   <separator name="electronic mixer" >
    <i name="AMIX">      0.40000000</i>
    <i name="BMIX">      1.00000000</i>
    <i name="AMIN">      0.10000000</i>
    <i name="AMIX_MAG">      1.60000000</i>
    <i name="BMIX_MAG">      1.00000000</i>
    <separator name="electronic mixer details" >
     <i type="int" name="IMIX">     4</i>
     <i type="logical" name="MIXFIRST"> F  </i>
     <i type="int" name="MAXMIX">   -45</i>
     <i name="WC">    100.00000000</i>
     <i type="int" name="INIMIX">     1</i>
     <i type="int" name="MIXPRE">     1</i>
     <i type="int" name="MREMOVE">     5</i>
    </separator>
   </separator>
   <separator name="electronic dipolcorrection" >
    <i type="logical" name="LDIPOL"> F  </i>
    <i type="logical" name="LMONO"> F  </i>
    <i type="int" name="IDIPOL">     0</i>
    <i name="EPSILON">      1.00000000</i>
    <v name="DIPOL">   -100.00000000   -100.00000000   -100.00000000</v>
    <i name="EFIELD">      0.00000000</i>
    <i type="logical" name="LVACPOTAV"> F  </i>
   </separator>
  </separator>
  <separator name="grids" >
   <i type="int" name="NGX">    16</i>
   <i type="int" name="NGY">    24</i>
   <i type="int" name="NGZ">    32</i>
   <i type="int" name="NGXF">    32</i>
   <i type="int" name="NGYF">    48</i>
   <i type="int" name="NGZF">    64</i>
   <i type="logical" name="ADDGRID"> T  </i>
  </separator>
  <separator name="ionic" >
   <i type="int" name="NSW">  1000</i>
   <i type="int" name="IBRION">     2</i>
   <i type="int" name="MDALGO">     0</i>
   <i type="int" name="ISIF">     2</i>
   <i name="PSTRESS">      0.00000000</i>
   <i name="EDIFFG">     -0.01000000</i>
   <i type="int" name="NFREE">     1</i>
   <i name="POTIM">      0.50000000</i>
   <i name="SMASS">     -3.00000000</i>
   <i name="SCALEE">      1.00000000</i>
  </separator>
  <separator name="ionic md" >
   <i name="TEBEG">      0.00010000</i>
   <i name="TEEND">      0.00010000</i>
   <i type="int" name="NBLOCK">     1</i>
   <i type="int" name="KBLOCK">  1000</i>
   <i type="int" name="NPACO">   256</i>
   <i name="APACO">     10.00000000</i>
  </separator>
  <separator name="symmetry" >
   <i type="int" name="ISYM">     2</i>
   <i name="SYMPREC">      0.00001000</i>
  </separator>
  <separator name="dos" >
   <i type="int" name="LORBIT">     0</i>
   <v name="RWIGS">     -1.00000000     -1.00000000</v>
   <i type="int" name="NEDOS">   301</i>
   <i name="EMIN">     10.00000000</i>
   <i name="EMAX">    -10.00000000</i>
   <i name="EFERMI">      0.00000000</i>
  </separator>
  <separator name="writing" >
   <i type="int" name="NWRITE">     2</i>
   <i type="logical" name="LWAVE"> F  </i>
   <i type="logical" name="LDOWNSAMPLE"> F  </i>
   <i type="logical" name="LCHARG"> T  </i>
   <i type="logical" name="LPARD"> F  </i>
   <i type="logical" name="LVTOT"> F  </i>
   <i type="logical" name="LVHAR"> F  </i>
   <i type="logical" name="LELF"> F  </i>
   <i type="logical" name="LOPTICS"> F  </i>
   <v name="STM">      0.00000000      0.00000000      0.00000000      0.00000000      0.00000000      0.00000000      0.00000000</v>
  </separator>
  <separator name="performance" >
   <i type="int" name="NPAR">     4</i>
   <i type="int" name="NSIM">     4</i>
   <i type="int" name="NBLK">    -1</i>
   <i type="logical" name="LPLANE"> T  </i>
   <i type="logical" name="LSCALAPACK"> T  </i>
   <i type="logical" name="LSCAAWARE"> F  </i>
   <i type="logical" name="LSCALU"> F  </i>
   <i type="logical" name="LASYNC"> F  </i>
   <i type="logical" name="LORBITALREAL"> F  </i>
  </separator>
  <separator name="miscellaneous" >
   <i type="int" name="IDIOT">     3</i>
   <i type="int" name="PHON_NSTRUCT">    -1</i>
   <i type="logical" name="LMUSIC"> F  </i>
   <v name="POMASS">     14.00100000     16.00000000</v>
   <v name="DARWINR">      0.00000000      0.00000000</v>
   <v name="DARWINV">      1.00000000      1.00000000</v>
   <i type="logical" name="LCORR"> T  </i>
  </separator>
  <i type="logical" name="GGA_COMPAT"> T  </i>
  <i type="logical" name="LBERRY"> F  </i>
  <i type="int" name="ICORELEVEL">     0</i>
  <i type="logical" name="LDAU"> F  </i>
  <i type="int" name="I_CONSTRAINED_M">     0</i>
  <separator name="electronic exchange-correlation" >
   <i type="string" name="GGA    ">PE</i>
   <i type="string" name="XC_C">1</i>
   <i type="int" name="VOSKOWN">     0</i>
   <i type="logical" name="LHFCALC"> F  </i>
   <i type="string" name="PRECFOCK"></i>
   <i type="logical" name="LSYMGRAD"> F  </i>
   <i type="logical" name="LHFONE"> F  </i>
   <i type="logical" name="LRHFCALC"> F  </i>
   <i type="logical" name="LTHOMAS"> F  </i>
   <i type="logical" name="LMODELHF"> F  </i>
   <i type="logical" name="LFOCKACE"> F  </i>
   <i name="ENCUT4O">     -1.00000000</i>
   <i type="int" name="EXXOEP">     0</i>
   <i type="int" name="FOURORBIT">     0</i>
   <i name="AEXX">      0.00000000</i>
   <i name="HFALPHA">      0.00000000</i>
   <i name="MCALPHA">      0.00000000</i>
   <i name="ALDAX">      1.00000000</i>
   <i name="AGGAX">      1.00000000</i>
   <i name="AMGGAX">      1.00000000</i>
   <i name="ALDAC">      1.00000000</i>
   <i name="AGGAC">      1.00000000</i>
   <i name="AMGGAC">      1.00000000</i>
   <i type="int" name="NKREDX">     1</i>
   <i type="int" name="NKREDY">     1</i>
   <i type="int" name="NKREDZ">     1</i>
   <i type="logical" name="SHIFTRED"> F  </i>
   <i type="logical" name="ODDONLY"> F  </i>
   <i type="logical" name="EVENONLY"> F  </i>
   <i type="int" name="LMAXFOCK">     0</i>
   <i type="int" name="NMAXFOCKAE">     0</i>
   <i type="logical" name="LFOCKAEDFT"> F  </i>
   <i name="HFSCREEN">      0.00000000</i>
   <i name="HFSCREENC">      0.00000000</i>
   <i type="int" name="NBANDSGWLOW">     0</i>
  </separator>
  <separator name="vdW DFT" >
   <i type="logical" name="LUSE_VDW"> F  </i>
   <i type="int" name="IVDW_NL">    -1</i>
   <i type="logical" name="LSPIN_VDW"> F  </i>
   <i name="ZAB_VDW">     -0.84910000</i>
   <i name="GAMMA_VDW">      1.39626340</i>
   <i name="ALPHA_VDW">      0.00000000</i>
   <i name="PARAM1">      0.12340000</i>
   <i name="PARAM2">      1.00000000</i>
   <i name="BPARAM">      6.30000000</i>
   <i name="CPARAM">      0.00930000</i>
  </separator>
  <separator name="model GW" >
   <i type="int" name="MODEL_GW">     0</i>
   <i name="MODEL_EPS0">      7.20000000</i>
   <i name="MODEL_ALPHA">      1.00000000</i>
  </separator>
  <separator name="linear response parameters" >
   <i type="logical" name="LEPSILON"> F  </i>
   <i type="logical" name="LRPA"> F  </i>
   <i type="logical" name="LNABLA"> F  </i>
   <i type="logical" name="LVEL"> F  </i>
   <i name="CSHIFT">      0.10000000</i>
   <i name="OMEGAMAX">     -1.00000000</i>
   <i name="DEG_THRESHOLD">      0.00200000</i>
   <i name="RTIME">     -0.10000000</i>
   <i name="WPLASMAI">      0.00000000</i>
   <v name="DFIELD">      0.00000000      0.00000000      0.00000000</v>
   <v name="WPLASMA">      0.00000000      0.00000000      0.00000000      0.00000000      0.00000000      0.00000000      0.00000000      0.00000000      0.00000000</v>
  </separator>
  <separator name="orbital magnetization" >
   <i type="logical" name="NUCIND"> F  </i>
   <v name="MAGPOS">      0.00000000      0.00000000      0.00000000</v>
   <i type="logical" name="LNICSALL"> T  </i>
   <i type="logical" name="ORBITALMAG"> F  </i>
   <i type="logical" name="LMAGBLOCH"> F  </i>
   <i type="logical" name="LCHIMAG"> F  </i>
   <i type="logical" name="LGAUGE"> T  </i>
   <i type="int" name="MAGATOM">     0</i>
   <v name="MAGDIPOL">      0.00000000      0.00000000      0.00000000</v>
   <v name="AVECCONST">      0.00000000      0.00000000      0.00000000</v>
  </separator>
  <separator name="response functions" >
   <i type="logical" name="LALL_IN_ONE"> F  </i>
   <i type="int" name="IALL_IN_ONE">    -1</i>
   <i type="int" name="NBANDS_WAVE">    -1</i>
   <i type="logical" name="LFINITE_TEMPERATURE"> F  </i>
   <i type="logical" name="LADDER"> F  </i>
   <i type="logical" name="LRPAFORCE"> F  </i>
   <i type="logical" name="LFXC"> F  </i>
   <i type="logical" name="LHARTREE"> T  </i>
   <i type="int" name="IBSE">     0</i>
   <v type="int" name="KPOINT">    -1     0     0     0</v>
   <i type="logical" name="LTCTC"> F  </i>
   <i type="logical" name="LTCTE"> F  </i>
   <i type="logical" name="LTETE"> F  </i>
   <i type="logical" name="LTRIPLET"> F  </i>
   <i type="logical" name="LFXCEPS"> F  </i>
   <i type="logical" name="LFXHEG"> F  </i>
   <i type="int" name="NATURALO">     2</i>
   <i type="logical" name="LHOLEGF"> F  </i>
   <i type="logical" name="L2ORDER"> F  </i>
   <i type="logical" name="LDMP1"> F  </i>
   <i type="logical" name="LMP2LT"> F  </i>
   <i type="logical" name="LSMP2LT"> F  </i>
   <i type="logical" name="LGWLF"> F  </i>
   <i name="ENCUTGW">     -1.60000002</i>
   <i name="ENCUTGWSOFT">     -1.60000002</i>
   <i name="ENCUTLF">     -1.00000000</i>
   <i type="logical" name="ESF_SPLINES"> F  </i>
   <i name="ESF_CONV">      0.01000000</i>
   <i type="int" name="ESF_NINTER">    15</i>
   <i type="int" name="LMAXMP2">    -1</i>
   <i name="SCISSOR">      0.00000000</i>
   <i type="int" name="NOMEGA">     0</i>
   <i type="int" name="NOMEGAR">     0</i>
   <i type="int" name="NBANDSGW">    -1</i>
   <i type="int" name="NBANDSO">    -1</i>
   <i type="int" name="NBANDSV">    -1</i>
   <i type="int" name="NELMGW">     1</i>
   <i type="int" name="NELMHF">     1</i>
   <i type="int" name="DIM">     3</i>
   <i type="int" name="IESPILON">     4</i>
   <i type="int" name="ANTIRES">     0</i>
   <i name="OMEGAMAX">    -30.00000000</i>
   <i name="OMEGAMIN">    -30.00000000</i>
   <i name="OMEGATL">   -200.00000000</i>
   <i type="int" name="OMEGAGRID">     0</i>
   <i name="CSHIFT">     -0.10000000</i>
   <i type="logical" name="LSELFENERGY"> F  </i>
   <i type="logical" name="LSPECTRAL"> F  </i>
   <i type="logical" name="LSPECTRALGW"> F  </i>
   <i type="logical" name="LSINGLES"> F  </i>
   <i type="logical" name="LFERMIGW"> F  </i>
   <i type="logical" name="ODDONLYGW"> F  </i>
   <i type="logical" name="EVENONLYGW"> F  </i>
   <i type="int" name="NKREDLFX">     1</i>
   <i type="int" name="NKREDLFY">     1</i>
   <i type="int" name="NKREDLFZ">     1</i>
   <i type="int" name="MAXMEM">  2800</i>
   <i type="int" name="TELESCOPE">     0</i>
   <i type="int" name="NTAUPAR">    -1</i>
   <i type="int" name="NOMEGAPAR">    -1</i>
   <i name="DAMP_NEWTON">      0.80000001</i>
   <i name="LAMBDA">      1.00000000</i>
  </separator>
  <separator name="External order field" >
   <i name="OFIELD_KAPPA">      0.00000000</i>
   <v name="OFIELD_K">      0.00000000      0.00000000      0.00000000</v>
   <i name="OFIELD_Q6_NEAR">      0.00000000</i>
   <i name="OFIELD_Q6_FAR">      0.00000000</i>
   <i name="OFIELD_A">      0.00000000</i>
  </separator>
  <separator name="optional k-points parameters" >
   <i type="int" name="KPOINTS_OPT_MODE">     1</i>
   <i type="logical" name="LKPOINTS_OPT"> F  </i>
  </separator>
 </parameters>
 <atominfo>
  <atoms>       2 </atoms>
  <types>       2 </types>
  <array name="atoms" >
   <dimension dim="1">ion</dimension>
   <field type="string">element</field>
   <field type="int">atomtype</field>
   <set>
    <rc><c>N </c><c>   1</c></rc>
    <rc><c>O </c><c>   2</c></rc>
   </set>
  </array>
  <array name="atomtypes" >
   <dimension dim="1">type</dimension>
   <field type="int">atomspertype</field>
   <field type="string">element</field>
   <field>mass</field>
   <field>valence</field>
   <field type="string">pseudopotential</field>
   <set>
    <rc><c>   1</c><c>N </c><c>     14.00100000</c><c>      5.00000000</c><c>  PAW_PBE N_s 07Sep2000                 </c></rc>
    <rc><c>   1</c><c>O </c><c>     16.00000000</c><c>      6.00000000</c><c>  PAW_PBE O_s 07Sep2000                 </c></rc>
   </set>
  </array>
 </atominfo>
 <structure name="initialpos" >
  <crystal>
   <varray name="basis" >
    <v>       2.00000000       0.00000000       0.00000000 </v>
    <v>       0.00000000       3.00000000       0.00000000 </v>
    <v>       0.00000000       0.00000000       4.00000000 </v>
   </varray>
   <i name="volume">     24.00000000 </i>
   <varray name="rec_basis" >
    <v>       0.50000000       0.00000000       0.00000000 </v>
    <v>       0.00000000       0.33333333       0.00000000 </v>
    <v>       0.00000000       0.00000000       0.25000000 </v>
   </varray>
  </crystal>
  <varray name="positions" >
   <v>       0.50000000       0.50000000       0.56044028 </v>
   <v>       0.50000000       0.50000000       0.26193626 </v>
  </varray>
  <varray name="selective"  type="logical" >
   <v type="logical" >  T  T  T </v>
   <v type="logical" >  T  T  T </v>
  </varray>
  <nose>
   <v>      -3.00000000       0.00000000       0.00010000       0.00010000 </v>
  </nose>
 </structure>
 <calculation>
  <scstep>
   <time name="dav">    0.01    0.01</time>
   <time name="total">    0.03    0.03</time>
   <energy>
    <i name="alphaZ">     15.03510525 </i>
    <i name="ewald">   -399.22983762 </i>
    <i name="hartreedc">   -260.96009246 </i>
    <i name="XCdc">     47.16944109 </i>
    <i name="pawpsdc">    549.09909851 </i>
    <i name="pawaedc">   -554.47186136 </i>
    <i name="eentropy">     -0.02820948 </i>
    <i name="bandstr">    -19.03140496 </i>
    <i name="atom">    696.92349690 </i>
    <i name="e_fr_energy">     74.50573588 </i>
    <i name="e_wo_entrp">     74.53394536 </i>
    <i name="e_0_energy">     74.51513904 </i>
   </energy>
  </scstep>
  <scstep>
   <time name="dav">    0.01    0.01</time>
   <time name="total">    0.01    0.01</time>
   <energy>
    <i name="e_fr_energy">     -8.47996179 </i>
    <i name="e_wo_entrp">     -8.45175231 </i>
    <i name="e_0_energy">     -8.47055863 </i>
   </energy>
  </scstep>
  <scstep>
   <time name="dav">    0.01    0.01</time>
   <time name="total">    0.01    0.01</time>
   <energy>
    <i name="e_fr_energy">    -10.88814720 </i>
    <i name="e_wo_entrp">    -10.85993772 </i>
    <i name="e_0_energy">    -10.87874404 </i>
   </energy>
  </scstep>
  <scstep>
   <time name="dav">    0.01    0.01</time>
   <time name="total">    0.01    0.01</time>
   <energy>
    <i name="e_fr_energy">    -10.90072481 </i>
    <i name="e_wo_entrp">    -10.87251533 </i>
    <i name="e_0_energy">    -10.89132165 </i>
   </energy>
  </scstep>
  <scstep>
   <time name="dav">    0.01    0.01</time>
   <time name="total">    0.02    0.02</time>
   <energy>
    <i name="e_fr_energy">    -10.90087002 </i>
    <i name="e_wo_entrp">    -10.87266054 </i>
    <i name="e_0_energy">    -10.89146686 </i>
   </energy>
  </scstep>
  <scstep>
   <time name="diag">    0.00    0.00</time>
   <time name="diis">    0.00    0.00</time>
   <time name="orth">    0.00    0.00</time>
   <time name="total">    0.04    0.04</time>
   <energy>
    <i name="e_fr_energy">    -10.62153132 </i>
    <i name="e_wo_entrp">    -10.59332184 </i>
    <i name="e_0_energy">    -10.61212816 </i>
   </energy>
  </scstep>
  <scstep>
   <time name="diag">    0.00    0.00</time>
   <time name="diis">    0.00    0.00</time>
   <time name="orth">    0.00    0.00</time>
   <time name="total">    0.04    0.04</time>
   <energy>
    <i name="e_fr_energy">    -11.25362596 </i>
    <i name="e_wo_entrp">    -11.22541648 </i>
    <i name="e_0_energy">    -11.24422280 </i>
   </energy>
  </scstep>
  <scstep>
   <time name="diag">    0.00    0.00</time>
   <time name="diis">    0.00    0.00</time>
   <time name="orth">    0.00    0.00</time>
   <time name="total">    0.04    0.04</time>
   <energy>
    <i name="e_fr_energy">    -10.49557553 </i>
    <i name="e_wo_entrp">    -10.46736633 </i>
    <i name="e_0_energy">    -10.48617246 </i>
   </energy>
  </scstep>
  <scstep>
   <time name="diag">    0.00    0.00</time>
   <time name="diis">    0.00    0.00</time>
   <time name="orth">    0.00    0.00</time>
   <time name="total">    0.04    0.04</time>
   <energy>
    <i name="e_fr_energy">    -10.48832380 </i>
    <i name="e_wo_entrp">    -10.46011480 </i>
    <i name="e_0_energy">    -10.47892080 </i>
   </energy>
  </scstep>
  <scstep>
   <time name="diag">    0.00    0.00</time>
   <time name="diis">    0.00    0.00</time>
   <time name="orth">    0.00    0.00</time>
   <time name="total">    0.04    0.04</time>
   <energy>
    <i name="e_fr_energy">    -10.48569601 </i>
    <i name="e_wo_entrp">    -10.45748681 </i>
    <i name="e_0_energy">    -10.47629295 </i>
   </energy>
  </scstep>
  <scstep>
   <time name="diag">    0.00    0.00</time>
   <time name="diis">    0.00    0.00</time>
   <time name="orth">    0.00    0.00</time>
   <time name="total">    0.04    0.04</time>
   <energy>
    <i name="e_fr_energy">    -10.48562319 </i>
    <i name="e_wo_entrp">    -10.45741394 </i>
    <i name="e_0_energy">    -10.47622010 </i>
   </energy>
  </scstep>
  <scstep>
   <time name="diag">    0.00    0.00</time>
   <time name="diis">    0.00    0.00</time>
   <time name="orth">    0.00    0.00</time>
   <time name="total">    0.04    0.04</time>
   <energy>
    <i name="e_fr_energy">    -10.48561455 </i>
    <i name="e_wo_entrp">    -10.45740527 </i>
    <i name="e_0_energy">    -10.47621146 </i>
   </energy>
  </scstep>
  <scstep>
   <time name="diag">    0.00    0.00</time>
   <time name="diis">    0.00    0.00</time>
   <time name="orth">    0.00    0.00</time>
   <time name="total">    0.03    0.03</time>
   <energy>
    <i name="alphaZ">     15.03510525 </i>
    <i name="ewald">   -399.22983762 </i>
    <i name="hartreedc">   -265.09418073 </i>
    <i name="XCdc">     47.72793782 </i>
    <i name="pawpsdc">   3299.41150193 </i>
    <i name="pawaedc">  -3305.28904518 </i>
    <i name="eentropy">     -0.02820927 </i>
    <i name="bandstr">    -99.94238423 </i>
    <i name="atom">    696.92349690 </i>
    <i name="e_fr_energy">    -10.48561512 </i>
    <i name="e_wo_entrp">    -10.45740584 </i>
    <i name="e_0_energy">    -10.47621202 </i>
   </energy>
  </scstep>
  <structure>
   <crystal>
    <varray name="basis" >
     <v>       2.00000000       0.00000000       0.00000000 </v>
     <v>       0.00000000       3.00000000       0.00000000 </v>
     <v>       0.00000000       0.00000000       4.00000000 </v>
    </varray>
    <i name="volume">     24.00000000 </i>
    <varray name="rec_basis" >
     <v>       0.50000000       0.00000000       0.00000000 </v>
     <v>       0.00000000       0.33333333       0.00000000 </v>
     <v>       0.00000000       0.00000000       0.25000000 </v>
    </varray>
   </crystal>
   <varray name="positions" >
    <v>       0.50000000       0.50000000       0.56044028 </v>
    <v>       0.50000000       0.50000000       0.26193626 </v>
   </varray>
  </structure>
  <varray name="forces" >
   <v>       0.00000000       0.00000000       4.70913167 </v>
   <v>       0.00000000       0.00000000      -4.70913167 </v>
  </varray>
  <varray name="stress" >
   <v>     486.65347003       0.00000000       0.00000000 </v>
   <v>       0.00000000      31.58258714       0.00000000 </v>
   <v>       0.00000000       0.00000000     197.09081383 </v>
  </varray>
  <energy>
   <i name="e_fr_energy">    -10.48561512 </i>
   <i name="e_wo_entrp">    -10.45740584 </i>
   <i name="e_0_energy">    -10.47621202 </i>
  </energy>
  <time name="totalsc">    0.74    0.74</time>
 </calculation>
 <calculation>
  <scstep>
   <time name="dav">    0.01    0.01</time>
   <time name="total">    0.04    0.04</time>
   <energy>
    <i name="alphaZ">     15.03510525 </i>
    <i name="ewald">   -490.00785542 </i>
    <i name="hartreedc">   -198.22128879 </i>
    <i name="XCdc">     46.42714927 </i>
    <i name="pawpsdc">   3299.83848838 </i>
    <i name="pawaedc">  -3305.71574650 </i>
    <i name="eentropy">     -0.02820948 </i>
    <i name="bandstr">    -72.54234755 </i>
    <i name="atom">    696.92349690 </i>
    <i name="e_fr_energy">     -8.29120794 </i>
    <i name="e_wo_entrp">     -8.26299846 </i>
    <i name="e_0_energy">     -8.28180478 </i>
   </energy>
  </scstep>
  <scstep>
   <time name="diag">    0.00    0.00</time>
   <time name="diis">    0.00    0.00</time>
   <time name="orth">    0.00    0.00</time>
   <time name="total">    0.04    0.04</time>
   <energy>
    <i name="e_fr_energy">     -9.47205572 </i>
    <i name="e_wo_entrp">     -9.44385180 </i>
    <i name="e_0_energy">     -9.46265441 </i>
   </energy>
  </scstep>
  <scstep>
   <time name="diag">    0.00    0.00</time>
   <time name="diis">    0.00    0.00</time>
   <time name="orth">    0.00    0.00</time>
   <time name="total">    0.04    0.04</time>
   <energy>
    <i name="e_fr_energy">    -10.65163092 </i>
    <i name="e_wo_entrp">    -10.62342144 </i>
    <i name="e_0_energy">    -10.64222776 </i>
   </energy>
  </scstep>
  <scstep>
   <time name="diag">    0.00    0.00</time>
   <time name="diis">    0.00    0.00</time>
   <time name="orth">    0.00    0.00</time>
   <time name="total">    0.04    0.04</time>
   <energy>
    <i name="e_fr_energy">     -8.80549793 </i>
    <i name="e_wo_entrp">     -8.77728846 </i>
    <i name="e_0_energy">     -8.79609477 </i>
   </energy>
  </scstep>
  <scstep>
   <time name="diag">    0.00    0.00</time>
   <time name="diis">    0.00    0.00</time>
   <time name="orth">    0.00    0.00</time>
   <time name="total">    0.04    0.04</time>
   <energy>
    <i name="e_fr_energy">     -8.19411509 </i>
    <i name="e_wo_entrp">     -8.16590578 </i>
    <i name="e_0_energy">     -8.18471198 </i>
   </energy>
  </scstep>
  <scstep>
   <time name="diag">    0.00    0.00</time>
   <time name="diis">    0.00    0.00</time>
   <time name="orth">    0.00    0.00</time>
   <time name="total">    0.04    0.04</time>
   <energy>
    <i name="e_fr_energy">     -8.19046034 </i>
    <i name="e_wo_entrp">     -8.16225131 </i>
    <i name="e_0_energy">     -8.18105733 </i>
   </energy>
  </scstep>
  <scstep>
   <time name="diag">    0.00    0.00</time>
   <time name="diis">    0.00    0.00</time>
   <time name="orth">    0.00    0.00</time>
   <time name="total">    0.04    0.04</time>
   <energy>
    <i name="e_fr_energy">     -8.19336485 </i>
    <i name="e_wo_entrp">     -8.16515735 </i>
    <i name="e_0_energy">     -8.18396235 </i>
   </energy>
  </scstep>
  <scstep>
   <time name="diag">    0.00    0.00</time>
   <time name="diis">    0.00    0.00</time>
   <time name="orth">    0.00    0.00</time>
   <time name="total">    0.04    0.04</time>
   <energy>
    <i name="e_fr_energy">     -8.19001028 </i>
    <i name="e_wo_entrp">     -8.16180141 </i>
    <i name="e_0_energy">     -8.18060732 </i>
   </energy>
  </scstep>
  <scstep>
   <time name="diag">    0.00    0.00</time>
   <time name="diis">    0.00    0.00</time>
   <time name="orth">    0.00    0.00</time>
   <time name="total">    0.04    0.04</time>
   <energy>
    <i name="e_fr_energy">     -8.18947231 </i>
    <i name="e_wo_entrp">     -8.16126380 </i>
    <i name="e_0_energy">     -8.18006948 </i>
   </energy>
  </scstep>
  <scstep>
   <time name="diag">    0.00    0.00</time>
   <time name="diis">    0.00    0.00</time>
   <time name="orth">    0.00    0.00</time>
   <time name="total">    0.04    0.04</time>
   <energy>
    <i name="e_fr_energy">     -8.18945245 </i>
    <i name="e_wo_entrp">     -8.16124390 </i>
    <i name="e_0_energy">     -8.18004960 </i>
   </energy>
  </scstep>
  <scstep>
   <time name="diag">    0.00    0.00</time>
   <time name="diis">    0.00    0.00</time>
   <time name="orth">    0.00    0.00</time>
   <time name="total">    0.04    0.04</time>
   <energy>
    <i name="e_fr_energy">     -8.18945424 </i>
    <i name="e_wo_entrp">     -8.16124569 </i>
    <i name="e_0_energy">     -8.18005139 </i>
   </energy>
  </scstep>
  <scstep>
   <time name="diag">    0.00    0.00</time>
   <time name="diis">    0.00    0.00</time>
   <time name="orth">    0.00    0.00</time>
   <time name="total">    0.04    0.04</time>
   <energy>
    <i name="e_fr_energy">     -8.18945280 </i>
    <i name="e_wo_entrp">     -8.16124424 </i>
    <i name="e_0_energy">     -8.18004995 </i>
   </energy>
  </scstep>
  <scstep>
   <time name="diag">    0.00    0.00</time>
   <time name="diis">    0.00    0.00</time>
   <time name="orth">    0.00    0.00</time>
   <time name="total">    0.03    0.03</time>
   <energy>
    <i name="alphaZ">     15.03510525 </i>
    <i name="ewald">   -490.00785542 </i>
    <i name="hartreedc">   -189.03351274 </i>
    <i name="XCdc">     45.61993081 </i>
    <i name="pawpsdc">   1128.52326100 </i>
    <i name="pawaedc">  -1133.50233310 </i>
    <i name="eentropy">     -0.02820857 </i>
    <i name="bandstr">    -81.71933661 </i>
    <i name="atom">    696.92349690 </i>
    <i name="e_fr_energy">     -8.18945247 </i>
    <i name="e_wo_entrp">     -8.16124390 </i>
    <i name="e_0_energy">     -8.18004962 </i>
   </energy>
  </scstep>
  <structure>
   <crystal>
    <varray name="basis" >
     <v>       2.00000000       0.00000000       0.00000000 </v>
     <v>       0.00000000       3.00000000       0.00000000 </v>
     <v>       0.00000000       0.00000000       4.00000000 </v>
    </varray>
    <i name="volume">     24.00000000 </i>
    <varray name="rec_basis" >
     <v>       0.50000000       0.00000000       0.00000000 </v>
     <v>       0.00000000       0.33333333       0.00000000 </v>
     <v>       0.00000000       0.00000000       0.25000000 </v>
    </varray>
   </crystal>
   <varray name="positions" >
    <v>       0.50000000       0.50000000       0.61723553 </v>
    <v>       0.50000000       0.50000000       0.20514101 </v>
   </varray>
  </structure>
  <varray name="forces" >
   <v>       0.00000000      -0.00000000      -6.01539317 </v>
   <v>       0.00000000       0.00000000       6.01539317 </v>
  </varray>
  <varray name="stress" >
   <v>     584.24276821       0.00000000       0.00000000 </v>
   <v>       0.00000000      36.24127778       0.00000000 </v>
   <v>       0.00000000       0.00000000   -1412.73587113 </v>
  </varray>
  <energy>
   <i name="e_fr_energy">     -8.18945247 </i>
   <i name="e_wo_entrp">     -8.16124390 </i>
   <i name="e_0_energy">     -8.18004962 </i>
  </energy>
  <time name="totalsc">    0.78    0.78</time>
 </calculation>
 <calculation>
  <scstep>
   <time name="dav">    0.01    0.01</time>
   <time name="total">    0.04    0.04</time>
   <energy>
    <i name="alphaZ">     15.03510525 </i>
    <i name="ewald">   -449.99401690 </i>
    <i name="hartreedc">   -220.93261573 </i>
    <i name="XCdc">     46.22180790 </i>
    <i name="pawpsdc">   1128.53613717 </i>
    <i name="pawaedc">  -1133.51518904 </i>
    <i name="eentropy">     -0.02816092 </i>
    <i name="bandstr">    -92.03815642 </i>
    <i name="atom">    696.92349690 </i>
    <i name="e_fr_energy">     -9.79159180 </i>
    <i name="e_wo_entrp">     -9.76343088 </i>
    <i name="e_0_energy">     -9.78220483 </i>
   </energy>
  </scstep>
  <scstep>
   <time name="diag">    0.00    0.00</time>
   <time name="diis">    0.00    0.00</time>
   <time name="orth">    0.00    0.00</time>
   <time name="total">    0.04    0.04</time>
   <energy>
    <i name="e_fr_energy">    -10.01185082 </i>
    <i name="e_wo_entrp">     -9.98364145 </i>
    <i name="e_0_energy">    -10.00244769 </i>
   </energy>
  </scstep>
  <scstep>
   <time name="diag">    0.00    0.00</time>
   <time name="diis">    0.00    0.00</time>
   <time name="orth">    0.00    0.00</time>
   <time name="total">    0.04    0.04</time>
   <energy>
    <i name="e_fr_energy">    -10.35732780 </i>
    <i name="e_wo_entrp">    -10.32919762 </i>
    <i name="e_0_energy">    -10.34795107 </i>
   </energy>
  </scstep>
  <scstep>
   <time name="diag">    0.00    0.00</time>
   <time name="diis">    0.00    0.00</time>
   <time name="orth">    0.00    0.00</time>
   <time name="total">    0.04    0.04</time>
   <energy>
    <i name="e_fr_energy">     -9.96708520 </i>
    <i name="e_wo_entrp">     -9.93887594 </i>
    <i name="e_0_energy">     -9.95768211 </i>
   </energy>
  </scstep>
  <scstep>
   <time name="diag">    0.00    0.00</time>
   <time name="diis">    0.00    0.00</time>
   <time name="orth">    0.00    0.00</time>
   <time name="total">    0.04    0.04</time>
   <energy>
    <i name="e_fr_energy">     -9.96683602 </i>
    <i name="e_wo_entrp">     -9.93862696 </i>
    <i name="e_0_energy">     -9.95743300 </i>
   </energy>
  </scstep>
  <scstep>
   <time name="diag">    0.00    0.00</time>
   <time name="diis">    0.00    0.00</time>
   <time name="orth">    0.00    0.00</time>
   <time name="total">    0.04    0.04</time>
   <energy>
    <i name="e_fr_energy">     -9.96645903 </i>
    <i name="e_wo_entrp">     -9.93824992 </i>
    <i name="e_0_energy">     -9.95705600 </i>
   </energy>
  </scstep>
  <scstep>
   <time name="diag">    0.00    0.00</time>
   <time name="diis">    0.00    0.00</time>
   <time name="orth">    0.00    0.00</time>
   <time name="total">    0.04    0.04</time>
   <energy>
    <i name="e_fr_energy">     -9.96648424 </i>
    <i name="e_wo_entrp">     -9.93827511 </i>
    <i name="e_0_energy">     -9.95708120 </i>
   </energy>
  </scstep>
  <scstep>
   <time name="diag">    0.00    0.00</time>
   <time name="diis">    0.00    0.00</time>
   <time name="orth">    0.00    0.00</time>
   <time name="total">    0.04    0.04</time>
   <energy>
    <i name="e_fr_energy">     -9.96648692 </i>
    <i name="e_wo_entrp">     -9.93827778 </i>
    <i name="e_0_energy">     -9.95708388 </i>
   </energy>
  </scstep>
  <scstep>
   <time name="diag">    0.00    0.00</time>
   <time name="diis">    0.00    0.00</time>
   <time name="orth">    0.00    0.00</time>
   <time name="total">    0.04    0.04</time>
   <energy>
    <i name="e_fr_energy">     -9.96648662 </i>
    <i name="e_wo_entrp">     -9.93827748 </i>
    <i name="e_0_energy">     -9.95708358 </i>
   </energy>
  </scstep>
  <scstep>
   <time name="diag">    0.00    0.00</time>
   <time name="diis">    0.00    0.00</time>
   <time name="orth">    0.00    0.00</time>
   <time name="total">    0.03    0.03</time>
   <energy>
    <i name="alphaZ">     15.03510525 </i>
    <i name="ewald">   -449.99401690 </i>
    <i name="hartreedc">   -224.09856302 </i>
    <i name="XCdc">     46.53207815 </i>
    <i name="pawpsdc">   1865.87544990 </i>
    <i name="pawaedc">  -1871.13616480 </i>
    <i name="eentropy">     -0.02820915 </i>
    <i name="bandstr">    -89.07566316 </i>
    <i name="atom">    696.92349690 </i>
    <i name="e_fr_energy">     -9.96648684 </i>
    <i name="e_wo_entrp">     -9.93827769 </i>
    <i name="e_0_energy">     -9.95708379 </i>
   </energy>
  </scstep>
  <structure>
   <crystal>
    <varray name="basis" >
     <v>       2.00000000       0.00000000       0.00000000 </v>
     <v>       0.00000000       3.00000000       0.00000000 </v>
     <v>       0.00000000       0.00000000       4.00000000 </v>
    </varray>
    <i name="volume">     24.00000000 </i>
    <varray name="rec_basis" >
     <v>       0.50000000       0.00000000       0.00000000 </v>
     <v>       0.00000000       0.33333333       0.00000000 </v>
     <v>       0.00000000       0.00000000       0.25000000 </v>
    </varray>
   </crystal>
   <varray name="positions" >
    <v>       0.50000000       0.50000000       0.58537904 </v>
    <v>       0.50000000       0.50000000       0.23699750 </v>
   </varray>
  </structure>
  <varray name="forces" >
   <v>       0.00000000      -0.00000000      -6.69468148 </v>
   <v>       0.00000000       0.00000000       6.69468148 </v>
  </varray>
  <varray name="stress" >
   <v>     536.06455529       0.00000000       0.00000000 </v>
   <v>       0.00000000      31.57640081       0.00000000 </v>
   <v>       0.00000000       0.00000000   -1000.52215200 </v>
  </varray>
  <energy>
   <i name="e_fr_energy">     -9.96648684 </i>
   <i name="e_wo_entrp">     -9.93827769 </i>
   <i name="e_0_energy">     -9.95708379 </i>
  </energy>
  <time name="totalsc">    0.66    0.66</time>
 </calculation>
 <calculation>
  <scstep>
   <time name="dav">    0.01    0.01</time>
   <time name="total">    0.04    0.04</time>
   <energy>
    <i name="alphaZ">     15.03510525 </i>
    <i name="ewald">   -422.62104571 </i>
    <i name="hartreedc">   -244.17693619 </i>
    <i name="XCdc">     46.94828597 </i>
    <i name="pawpsdc">   1866.37074761 </i>
    <i name="pawaedc">  -1871.63159040 </i>
    <i name="eentropy">     -0.02820091 </i>
    <i name="bandstr">    -97.33164009 </i>
    <i name="atom">    696.92349690 </i>
    <i name="e_fr_energy">    -10.51177758 </i>
    <i name="e_wo_entrp">    -10.48357667 </i>
    <i name="e_0_energy">    -10.50237727 </i>
   </energy>
  </scstep>
  <scstep>
   <time name="diag">    0.00    0.00</time>
   <time name="diis">    0.00    0.00</time>
   <time name="orth">    0.00    0.00</time>
   <time name="total">    0.04    0.04</time>
   <energy>
    <i name="e_fr_energy">    -10.55520186 </i>
    <i name="e_wo_entrp">    -10.52699270 </i>
    <i name="e_0_energy">    -10.54579881 </i>
   </energy>
  </scstep>
  <scstep>
   <time name="diag">    0.00    0.00</time>
   <time name="diis">    0.00    0.00</time>
   <time name="orth">    0.00    0.00</time>
   <time name="total">    0.04    0.04</time>
   <energy>
    <i name="e_fr_energy">    -10.58916507 </i>
    <i name="e_wo_entrp">    -10.56095815 </i>
    <i name="e_0_energy">    -10.57976276 </i>
   </energy>
  </scstep>
  <scstep>
   <time name="diag">    0.00    0.00</time>
   <time name="diis">    0.00    0.00</time>
   <time name="orth">    0.00    0.00</time>
   <time name="total">    0.04    0.04</time>
   <energy>
    <i name="e_fr_energy">    -10.55986094 </i>
    <i name="e_wo_entrp">    -10.53165152 </i>
    <i name="e_0_energy">    -10.55045780 </i>
   </energy>
  </scstep>
  <scstep>
   <time name="diag">    0.00    0.00</time>
   <time name="diis">    0.00    0.00</time>
   <time name="orth">    0.00    0.00</time>
   <time name="total">    0.04    0.04</time>
   <energy>
    <i name="e_fr_energy">    -10.54934110 </i>
    <i name="e_wo_entrp">    -10.52113185 </i>
    <i name="e_0_energy">    -10.53993802 </i>
   </energy>
  </scstep>
  <scstep>
   <time name="diag">    0.00    0.00</time>
   <time name="diis">    0.00    0.00</time>
   <time name="orth">    0.00    0.00</time>
   <time name="total">    0.04    0.04</time>
   <energy>
    <i name="e_fr_energy">    -10.54932938 </i>
    <i name="e_wo_entrp">    -10.52112013 </i>
    <i name="e_0_energy">    -10.53992629 </i>
   </energy>
  </scstep>
  <scstep>
   <time name="diag">    0.00    0.00</time>
   <time name="diis">    0.00    0.00</time>
   <time name="orth">    0.00    0.00</time>
   <time name="total">    0.04    0.04</time>
   <energy>
    <i name="e_fr_energy">    -10.54932042 </i>
    <i name="e_wo_entrp">    -10.52111117 </i>
    <i name="e_0_energy">    -10.53991734 </i>
   </energy>
  </scstep>
  <scstep>
   <time name="diag">    0.00    0.00</time>
   <time name="diis">    0.00    0.00</time>
   <time name="orth">    0.00    0.00</time>
   <time name="total">    0.04    0.04</time>
   <energy>
    <i name="e_fr_energy">    -10.54932090 </i>
    <i name="e_wo_entrp">    -10.52111164 </i>
    <i name="e_0_energy">    -10.53991781 </i>
   </energy>
  </scstep>
  <scstep>
   <time name="diag">    0.00    0.00</time>
   <time name="diis">    0.00    0.00</time>
   <time name="orth">    0.00    0.00</time>
   <time name="total">    0.03    0.03</time>
   <energy>
    <i name="alphaZ">     15.03510525 </i>
    <i name="ewald">   -422.62104571 </i>
    <i name="hartreedc">   -246.69614398 </i>
    <i name="XCdc">     47.17528398 </i>
    <i name="pawpsdc">   2599.35742914 </i>
    <i name="pawaedc">  -2604.91539634 </i>
    <i name="eentropy">     -0.02820926 </i>
    <i name="bandstr">    -94.77984025 </i>
    <i name="atom">    696.92349690 </i>
    <i name="e_fr_energy">    -10.54932028 </i>
    <i name="e_wo_entrp">    -10.52111102 </i>
    <i name="e_0_energy">    -10.53991719 </i>
   </energy>
  </scstep>
  <structure>
   <crystal>
    <varray name="basis" >
     <v>       2.00000000       0.00000000       0.00000000 </v>
     <v>       0.00000000       3.00000000       0.00000000 </v>
     <v>       0.00000000       0.00000000       4.00000000 </v>
    </varray>
    <i name="volume">     24.00000000 </i>
    <varray name="rec_basis" >
     <v>       0.50000000       0.00000000       0.00000000 </v>
     <v>       0.00000000       0.33333333       0.00000000 </v>
     <v>       0.00000000       0.00000000       0.25000000 </v>
    </varray>
   </crystal>
   <varray name="positions" >
    <v>       0.50000000       0.50000000       0.57073858 </v>
    <v>       0.50000000       0.50000000       0.25163796 </v>
   </varray>
  </structure>
  <varray name="forces" >
   <v>       0.00000000       0.00000000      -2.42101189 </v>
   <v>       0.00000000      -0.00000000       2.42101189 </v>
  </varray>
  <varray name="stress" >
   <v>     505.97523827       0.00000000       0.00000000 </v>
   <v>       0.00000000      30.58782484       0.00000000 </v>
   <v>       0.00000000       0.00000000    -457.07586508 </v>
  </varray>
  <energy>
   <i name="e_fr_energy">    -10.54932028 </i>
   <i name="e_wo_entrp">    -10.52111102 </i>
   <i name="e_0_energy">    -10.53991719 </i>
  </energy>
  <time name="totalsc">    0.63    0.63</time>
 </calculation>
 <calculation>
  <scstep>
   <time name="dav">    0.01    0.01</time>
   <time name="total">    0.04    0.04</time>
   <energy>
    <i name="alphaZ">     15.03510525 </i>
    <i name="ewald">   -415.09238537 </i>
    <i name="hartreedc">   -251.97573737 </i>
    <i name="XCdc">     47.28972948 </i>
    <i name="pawpsdc">   2599.37428582 </i>
    <i name="pawaedc">  -2604.93188802 </i>
    <i name="eentropy">     -0.02820887 </i>
    <i name="bandstr">    -97.18416223 </i>
    <i name="atom">    696.92349690 </i>
    <i name="e_fr_energy">    -10.58976441 </i>
    <i name="e_wo_entrp">    -10.56155553 </i>
    <i name="e_0_energy">    -10.58036145 </i>
   </energy>
  </scstep>
  <scstep>
   <time name="diag">    0.00    0.00</time>
   <time name="diis">    0.00    0.00</time>
   <time name="orth">    0.00    0.00</time>
   <time name="total">    0.04    0.04</time>
   <energy>
    <i name="e_fr_energy">    -10.59156276 </i>
    <i name="e_wo_entrp">    -10.56335353 </i>
    <i name="e_0_energy">    -10.58215969 </i>
   </energy>
  </scstep>
  <scstep>
   <time name="diag">    0.00    0.00</time>
   <time name="diis">    0.00    0.00</time>
   <time name="orth">    0.00    0.00</time>
   <time name="total">    0.04    0.04</time>
   <energy>
    <i name="e_fr_energy">    -10.59285055 </i>
    <i name="e_wo_entrp">    -10.56464143 </i>
    <i name="e_0_energy">    -10.58344751 </i>
   </energy>
  </scstep>
  <scstep>
   <time name="diag">    0.00    0.00</time>
   <time name="diis">    0.00    0.00</time>
   <time name="orth">    0.00    0.00</time>
   <time name="total">    0.04    0.04</time>
   <energy>
    <i name="e_fr_energy">    -10.59204202 </i>
    <i name="e_wo_entrp">    -10.56383267 </i>
    <i name="e_0_energy">    -10.58263890 </i>
   </energy>
  </scstep>
  <scstep>
   <time name="diag">    0.00    0.00</time>
   <time name="diis">    0.00    0.00</time>
   <time name="orth">    0.00    0.00</time>
   <time name="total">    0.04    0.04</time>
   <energy>
    <i name="e_fr_energy">    -10.59116591 </i>
    <i name="e_wo_entrp">    -10.56295664 </i>
    <i name="e_0_energy">    -10.58176282 </i>
   </energy>
  </scstep>
  <scstep>
   <time name="diag">    0.00    0.00</time>
   <time name="diis">    0.00    0.00</time>
   <time name="orth">    0.00    0.00</time>
   <time name="total">    0.04    0.04</time>
   <energy>
    <i name="e_fr_energy">    -10.59116456 </i>
    <i name="e_wo_entrp">    -10.56295529 </i>
    <i name="e_0_energy">    -10.58176147 </i>
   </energy>
  </scstep>
  <scstep>
   <time name="diag">    0.00    0.00</time>
   <time name="diis">    0.00    0.00</time>
   <time name="orth">    0.00    0.00</time>
   <time name="total">    0.03    0.03</time>
   <energy>
    <i name="alphaZ">     15.03510525 </i>
    <i name="ewald">   -415.09238537 </i>
    <i name="hartreedc">   -252.70635246 </i>
    <i name="XCdc">     47.35307334 </i>
    <i name="pawpsdc">   2820.63523384 </i>
    <i name="pawaedc">  -2826.28825391 </i>
    <i name="eentropy">     -0.02820927 </i>
    <i name="bandstr">    -96.42287246 </i>
    <i name="atom">    696.92349690 </i>
    <i name="e_fr_energy">    -10.59116414 </i>
    <i name="e_wo_entrp">    -10.56295487 </i>
    <i name="e_0_energy">    -10.58176105 </i>
   </energy>
  </scstep>
  <structure>
   <crystal>
    <varray name="basis" >
     <v>       2.00000000       0.00000000       0.00000000 </v>
     <v>       0.00000000       3.00000000       0.00000000 </v>
     <v>       0.00000000       0.00000000       4.00000000 </v>
    </varray>
    <i name="volume">     24.00000000 </i>
    <varray name="rec_basis" >
     <v>       0.50000000       0.00000000       0.00000000 </v>
     <v>       0.00000000       0.33333333       0.00000000 </v>
     <v>       0.00000000       0.00000000       0.25000000 </v>
    </varray>
   </crystal>
   <varray name="positions" >
    <v>       0.50000000       0.50000000       0.56724184 </v>
    <v>       0.50000000       0.50000000       0.25513471 </v>
   </varray>
  </structure>
  <varray name="forces" >
   <v>       0.00000000       0.00000000      -0.49328694 </v>
   <v>       0.00000000      -0.00000000       0.49328694 </v>
  </varray>
  <varray name="stress" >
   <v>     499.41407812       0.00000000       0.00000000 </v>
   <v>       0.00000000      31.28572324       0.00000000 </v>
   <v>       0.00000000       0.00000000    -265.13051340 </v>
  </varray>
  <energy>
   <i name="e_fr_energy">    -10.59116414 </i>
   <i name="e_wo_entrp">    -10.56295487 </i>
   <i name="e_0_energy">    -10.58176105 </i>
  </energy>
  <time name="totalsc">    0.55    0.55</time>
 </calculation>
 <calculation>
  <scstep>
   <time name="dav">    0.01    0.01</time>
   <time name="total">    0.04    0.04</time>
   <energy>
    <i name="alphaZ">     15.03510525 </i>
    <i name="ewald">   -413.28955539 </i>
    <i name="hartreedc">   -253.95621237 </i>
    <i name="XCdc">     47.38040591 </i>
    <i name="pawpsdc">   2820.99653348 </i>
    <i name="pawaedc">  -2826.64990009 </i>
    <i name="eentropy">     -0.02820921 </i>
    <i name="bandstr">    -97.00431355 </i>
    <i name="atom">    696.92349690 </i>
    <i name="e_fr_energy">    -10.59264906 </i>
    <i name="e_wo_entrp">    -10.56443985 </i>
    <i name="e_0_energy">    -10.58324599 </i>
   </energy>
  </scstep>
  <scstep>
   <time name="diag">    0.00    0.00</time>
   <time name="diis">    0.00    0.00</time>
   <time name="orth">    0.00    0.00</time>
   <time name="total">    0.04    0.04</time>
   <energy>
    <i name="e_fr_energy">    -10.59271412 </i>
    <i name="e_wo_entrp">    -10.56450486 </i>
    <i name="e_0_energy">    -10.58331103 </i>
   </energy>
  </scstep>
  <scstep>
   <time name="diag">    0.00    0.00</time>
   <time name="diis">    0.00    0.00</time>
   <time name="orth">    0.00    0.00</time>
   <time name="total">    0.04    0.04</time>
   <energy>
    <i name="e_fr_energy">    -10.59276708 </i>
    <i name="e_wo_entrp">    -10.56455783 </i>
    <i name="e_0_energy">    -10.58336400 </i>
   </energy>
  </scstep>
  <scstep>
   <time name="diag">    0.00    0.00</time>
   <time name="diis">    0.00    0.00</time>
   <time name="orth">    0.00    0.00</time>
   <time name="total">    0.04    0.04</time>
   <energy>
    <i name="e_fr_energy">    -10.59274078 </i>
    <i name="e_wo_entrp">    -10.56453149 </i>
    <i name="e_0_energy">    -10.58333769 </i>
   </energy>
  </scstep>
  <scstep>
   <time name="diag">    0.00    0.00</time>
   <time name="diis">    0.00    0.00</time>
   <time name="orth">    0.00    0.00</time>
   <time name="total">    0.04    0.04</time>
   <energy>
    <i name="e_fr_energy">    -10.59269007 </i>
    <i name="e_wo_entrp">    -10.56448080 </i>
    <i name="e_0_energy">    -10.58328698 </i>
   </energy>
  </scstep>
  <scstep>
   <time name="diag">    0.00    0.00</time>
   <time name="diis">    0.00    0.00</time>
   <time name="orth">    0.00    0.00</time>
   <time name="total">    0.03    0.03</time>
   <energy>
    <i name="alphaZ">     15.03510525 </i>
    <i name="ewald">   -413.28955539 </i>
    <i name="hartreedc">   -254.13567793 </i>
    <i name="XCdc">     47.39589063 </i>
    <i name="pawpsdc">   2875.32527893 </i>
    <i name="pawaedc">  -2881.00283252 </i>
    <i name="eentropy">     -0.02820927 </i>
    <i name="bandstr">    -96.81618653 </i>
    <i name="atom">    696.92349690 </i>
    <i name="e_fr_energy">    -10.59268994 </i>
    <i name="e_wo_entrp">    -10.56448067 </i>
    <i name="e_0_energy">    -10.58328685 </i>
   </energy>
  </scstep>
  <structure>
   <crystal>
    <varray name="basis" >
     <v>       2.00000000       0.00000000       0.00000000 </v>
     <v>       0.00000000       3.00000000       0.00000000 </v>
     <v>       0.00000000       0.00000000       4.00000000 </v>
    </varray>
    <i name="volume">     24.00000000 </i>
    <varray name="rec_basis" >
     <v>       0.50000000       0.00000000       0.00000000 </v>
     <v>       0.00000000       0.33333333       0.00000000 </v>
     <v>       0.00000000       0.00000000       0.25000000 </v>
    </varray>
   </crystal>
   <varray name="positions" >
    <v>       0.50000000       0.50000000       0.56643189 </v>
    <v>       0.50000000       0.50000000       0.25594465 </v>
   </varray>
  </structure>
  <varray name="forces" >
   <v>       0.00000000       0.00000000       0.02708483 </v>
   <v>       0.00000000       0.00000000      -0.02708483 </v>
  </varray>
  <varray name="stress" >
   <v>     497.88791872       0.00000000       0.00000000 </v>
   <v>       0.00000000      31.33574156       0.00000000 </v>
   <v>       0.00000000       0.00000000    -216.15492479 </v>
  </varray>
  <energy>
   <i name="e_fr_energy">    -10.59268994 </i>
   <i name="e_wo_entrp">    -10.56448067 </i>
   <i name="e_0_energy">    -10.58328685 </i>
  </energy>
  <time name="totalsc">    0.51    0.51</time>
 </calculation>
 <calculation>
  <scstep>
   <time name="dav">    0.01    0.01</time>
   <time name="total">    0.04    0.04</time>
   <energy>
    <i name="alphaZ">     15.03510525 </i>
    <i name="ewald">   -413.38394893 </i>
    <i name="hartreedc">   -254.06894280 </i>
    <i name="XCdc">     47.39433527 </i>
    <i name="pawpsdc">   2875.36409325 </i>
    <i name="pawaedc">  -2881.04162836 </i>
    <i name="eentropy">     -0.02820928 </i>
    <i name="bandstr">    -96.78699551 </i>
    <i name="atom">    696.92349690 </i>
    <i name="e_fr_energy">    -10.59269419 </i>
    <i name="e_wo_entrp">    -10.56448492 </i>
    <i name="e_0_energy">    -10.58329110 </i>
   </energy>
  </scstep>
  <scstep>
   <time name="diag">    0.00    0.00</time>
   <time name="diis">    0.00    0.00</time>
   <time name="orth">    0.00    0.00</time>
   <time name="total">    0.03    0.03</time>
   <energy>
    <i name="alphaZ">     15.03510525 </i>
    <i name="ewald">   -413.38394893 </i>
    <i name="hartreedc">   -254.06432532 </i>
    <i name="XCdc">     47.39390401 </i>
    <i name="pawpsdc">   2874.53227604 </i>
    <i name="pawaedc">  -2880.20920270 </i>
    <i name="eentropy">     -0.02820927 </i>
    <i name="bandstr">    -96.79179036 </i>
    <i name="atom">    696.92349690 </i>
    <i name="e_fr_energy">    -10.59269437 </i>
    <i name="e_wo_entrp">    -10.56448510 </i>
    <i name="e_0_energy">    -10.58329128 </i>
   </energy>
  </scstep>
  <structure>
   <crystal>
    <varray name="basis" >
     <v>       2.00000000       0.00000000       0.00000000 </v>
     <v>       0.00000000       3.00000000       0.00000000 </v>
     <v>       0.00000000       0.00000000       4.00000000 </v>
    </varray>
    <i name="volume">     24.00000000 </i>
    <varray name="rec_basis" >
     <v>       0.50000000       0.00000000       0.00000000 </v>
     <v>       0.00000000       0.33333333       0.00000000 </v>
     <v>       0.00000000       0.00000000       0.25000000 </v>
    </varray>
   </crystal>
   <varray name="positions" >
    <v>       0.50000000       0.50000000       0.56647405 </v>
    <v>       0.50000000       0.50000000       0.25590249 </v>
   </varray>
  </structure>
  <varray name="forces" >
   <v>       0.00000000      -0.00000000      -0.00136709 </v>
   <v>       0.00000000       0.00000000       0.00136709 </v>
  </varray>
  <varray name="stress" >
   <v>     497.69701739       0.00000000       0.00000000 </v>
   <v>       0.00000000      30.94990750       0.00000000 </v>
   <v>       0.00000000       0.00000000    -218.88259441 </v>
  </varray>
  <energy>
   <i name="e_fr_energy">    -10.59269437 </i>
   <i name="e_wo_entrp">    -10.56448510 </i>
   <i name="e_0_energy">    -10.58329128 </i>
  </energy>
  <time name="totalsc">    0.36    0.36</time>
  <eigenvalues>
   <array>
    <dimension dim="1">band</dimension>
    <dimension dim="2">kpoint</dimension>
    <dimension dim="3">spin</dimension>
    <field>eigene</field>
    <field>occ</field>
    <set>
     <set comment="spin 1">
      <set comment="kpoint 1">
       <r>  -23.5674    1.0000 </r>
       <r>  -10.4787    1.0000 </r>
       <r>   -6.5838    1.0000 </r>
       <r>   -5.0813    1.0000 </r>
       <r>   -3.7819    1.0000 </r>
       <r>    2.1944    0.5000 </r>
       <r>    2.5844   -0.0000 </r>
       <r>   11.7797    0.0000 </r>
       <r>   13.1829    0.0000 </r>
       <r>   15.8482    0.0000 </r>
       <r>   19.8049    0.0000 </r>
       <r>   20.7071    0.0000 </r>
      </set>
     </set>
    </set>
   </array>
  </eigenvalues>
  <separator name="orbital magnetization" >
   <v name="MAGDIPOLOUT">      0.00000000      0.00000000      0.00000000</v>
  </separator>
  <dos>
   <i name="efermi">      2.19443427 </i>
   <total>
    <array>
     <dimension dim="1">gridpoints</dimension>
     <dimension dim="2">spin</dimension>
     <field>energy</field>
     <field>total</field>
     <field>integrated</field>
     <set>
      <set comment="spin 1">
       <r>   -25.7812     0.0000     0.0000 </r>
       <r>   -25.6188     0.0000     0.0000 </r>
       <r>   -25.4565     0.0000     0.0000 </r>
       <r>   -25.2941     0.0000     0.0000 </r>
       <r>   -25.1318     0.0000     0.0000 </r>
       <r>   -24.9695     0.0000     0.0000 </r>
       <r>   -24.8071     0.0000     0.0000 </r>
       <r>   -24.6448     0.0000     0.0000 </r>
       <r>   -24.4824    -0.0000    -0.0000 </r>
       <r>   -24.3201    -0.0000    -0.0000 </r>
       <r>   -24.1578    -0.0000    -0.0000 </r>
       <r>   -23.9954    -0.0000    -0.0000 </r>
       <r>   -23.8331    -0.0069    -0.0011 </r>
       <r>   -23.6707    -0.3409    -0.0565 </r>
       <r>   -23.5084    11.6281     1.8313 </r>
       <r>   -23.3461     1.0860     2.0076 </r>
       <r>   -23.1837    -0.0465     2.0000 </r>
       <r>   -23.0214    -0.0000     2.0000 </r>
       <r>   -22.8590    -0.0000     2.0000 </r>
       <r>   -22.6967     0.0000     2.0000 </r>
       <r>   -22.5344     0.0000     2.0000 </r>
       <r>   -22.3720     0.0000     2.0000 </r>
       <r>   -22.2097     0.0000     2.0000 </r>
       <r>   -22.0473     0.0000     2.0000 </r>
       <r>   -21.8850     0.0000     2.0000 </r>
       <r>   -21.7227     0.0000     2.0000 </r>
       <r>   -21.5603     0.0000     2.0000 </r>
       <r>   -21.3980     0.0000     2.0000 </r>
       <r>   -21.2356     0.0000     2.0000 </r>
       <r>   -21.0733     0.0000     2.0000 </r>
       <r>   -20.9110     0.0000     2.0000 </r>
       <r>   -20.7486     0.0000     2.0000 </r>
       <r>   -20.5863     0.0000     2.0000 </r>
       <r>   -20.4239     0.0000     2.0000 </r>
       <r>   -20.2616     0.0000     2.0000 </r>
       <r>   -20.0993     0.0000     2.0000 </r>
       <r>   -19.9369     0.0000     2.0000 </r>
       <r>   -19.7746     0.0000     2.0000 </r>
       <r>   -19.6122     0.0000     2.0000 </r>
       <r>   -19.4499     0.0000     2.0000 </r>
       <r>   -19.2876     0.0000     2.0000 </r>
       <r>   -19.1252     0.0000     2.0000 </r>
       <r>   -18.9629     0.0000     2.0000 </r>
       <r>   -18.8005     0.0000     2.0000 </r>
       <r>   -18.6382     0.0000     2.0000 </r>
       <r>   -18.4759     0.0000     2.0000 </r>
       <r>   -18.3135     0.0000     2.0000 </r>
       <r>   -18.1512     0.0000     2.0000 </r>
       <r>   -17.9889     0.0000     2.0000 </r>
       <r>   -17.8265     0.0000     2.0000 </r>
       <r>   -17.6642     0.0000     2.0000 </r>
       <r>   -17.5018     0.0000     2.0000 </r>
       <r>   -17.3395     0.0000     2.0000 </r>
       <r>   -17.1772     0.0000     2.0000 </r>
       <r>   -17.0148     0.0000     2.0000 </r>
       <r>   -16.8525     0.0000     2.0000 </r>
       <r>   -16.6901     0.0000     2.0000 </r>
       <r>   -16.5278     0.0000     2.0000 </r>
       <r>   -16.3655     0.0000     2.0000 </r>
       <r>   -16.2031     0.0000     2.0000 </r>
       <r>   -16.0408     0.0000     2.0000 </r>
       <r>   -15.8784     0.0000     2.0000 </r>
       <r>   -15.7161     0.0000     2.0000 </r>
       <r>   -15.5538     0.0000     2.0000 </r>
       <r>   -15.3914     0.0000     2.0000 </r>
       <r>   -15.2291     0.0000     2.0000 </r>
       <r>   -15.0667     0.0000     2.0000 </r>
       <r>   -14.9044     0.0000     2.0000 </r>
       <r>   -14.7421     0.0000     2.0000 </r>
       <r>   -14.5797     0.0000     2.0000 </r>
       <r>   -14.4174     0.0000     2.0000 </r>
       <r>   -14.2550     0.0000     2.0000 </r>
       <r>   -14.0927     0.0000     2.0000 </r>
       <r>   -13.9304     0.0000     2.0000 </r>
       <r>   -13.7680     0.0000     2.0000 </r>
       <r>   -13.6057     0.0000     2.0000 </r>
       <r>   -13.4433     0.0000     2.0000 </r>
       <r>   -13.2810     0.0000     2.0000 </r>
       <r>   -13.1187     0.0000     2.0000 </r>
       <r>   -12.9563     0.0000     2.0000 </r>
       <r>   -12.7940     0.0000     2.0000 </r>
       <r>   -12.6316     0.0000     2.0000 </r>
       <r>   -12.4693     0.0000     2.0000 </r>
       <r>   -12.3070     0.0000     2.0000 </r>
       <r>   -12.1446     0.0000     2.0000 </r>
       <r>   -11.9823     0.0000     2.0000 </r>
       <r>   -11.8199     0.0000     2.0000 </r>
       <r>   -11.6576     0.0000     2.0000 </r>
       <r>   -11.4953     0.0000     2.0000 </r>
       <r>   -11.3329    -0.0000     2.0000 </r>
       <r>   -11.1706    -0.0000     2.0000 </r>
       <r>   -11.0082    -0.0000     2.0000 </r>
       <r>   -10.8459    -0.0000     2.0000 </r>
       <r>   -10.6836    -0.0838     1.9864 </r>
       <r>   -10.5212     2.2206     2.3469 </r>
       <r>   -10.3589    10.6185     4.0707 </r>
       <r>   -10.1965    -0.4324     4.0005 </r>
       <r>   -10.0342    -0.0030     4.0000 </r>
       <r>    -9.8719    -0.0000     4.0000 </r>
       <r>    -9.7095    -0.0000     4.0000 </r>
       <r>    -9.5472     0.0000     4.0000 </r>
       <r>    -9.3848     0.0000     4.0000 </r>
       <r>    -9.2225     0.0000     4.0000 </r>
       <r>    -9.0602     0.0000     4.0000 </r>
       <r>    -8.8978     0.0000     4.0000 </r>
       <r>    -8.7355     0.0000     4.0000 </r>
       <r>    -8.5731     0.0000     4.0000 </r>
       <r>    -8.4108     0.0000     4.0000 </r>
       <r>    -8.2485     0.0000     4.0000 </r>
       <r>    -8.0861     0.0000     4.0000 </r>
       <r>    -7.9238     0.0000     4.0000 </r>
       <r>    -7.7614     0.0000     4.0000 </r>
       <r>    -7.5991     0.0000     4.0000 </r>
       <r>    -7.4368    -0.0000     4.0000 </r>
       <r>    -7.2744    -0.0000     4.0000 </r>
       <r>    -7.1121    -0.0000     4.0000 </r>
       <r>    -6.9497    -0.0000     4.0000 </r>
       <r>    -6.7874    -0.0874     3.9858 </r>
       <r>    -6.6251     2.3222     4.3628 </r>
       <r>    -6.4627    10.5215     6.0709 </r>
       <r>    -6.3004    -0.4336     6.0005 </r>
       <r>    -6.1380    -0.0028     6.0000 </r>
       <r>    -5.9757    -0.0000     6.0000 </r>
       <r>    -5.8134    -0.0000     6.0000 </r>
       <r>    -5.6510    -0.0000     6.0000 </r>
       <r>    -5.4887    -0.0000     6.0000 </r>
       <r>    -5.3263    -0.0177     5.9971 </r>
       <r>    -5.1640     0.0589     6.0067 </r>
       <r>    -5.0017    12.1443     7.9782 </r>
       <r>    -4.8393     0.1546     8.0033 </r>
       <r>    -4.6770    -0.0203     8.0000 </r>
       <r>    -4.5146    -0.0000     8.0000 </r>
       <r>    -4.3523    -0.0000     8.0000 </r>
       <r>    -4.1900    -0.0000     8.0000 </r>
       <r>    -4.0276    -0.0173     7.9972 </r>
       <r>    -3.8653     0.0406     8.0038 </r>
       <r>    -3.7029    12.1418     9.9749 </r>
       <r>    -3.5406     0.1755    10.0034 </r>
       <r>    -3.3783    -0.0208    10.0000 </r>
       <r>    -3.2159    -0.0000    10.0000 </r>
       <r>    -3.0536    -0.0000    10.0000 </r>
       <r>    -2.8912     0.0000    10.0000 </r>
       <r>    -2.7289     0.0000    10.0000 </r>
       <r>    -2.5666     0.0000    10.0000 </r>
       <r>    -2.4042     0.0000    10.0000 </r>
       <r>    -2.2419     0.0000    10.0000 </r>
       <r>    -2.0796     0.0000    10.0000 </r>
       <r>    -1.9172     0.0000    10.0000 </r>
       <r>    -1.7549     0.0000    10.0000 </r>
       <r>    -1.5925     0.0000    10.0000 </r>
       <r>    -1.4302     0.0000    10.0000 </r>
       <r>    -1.2679     0.0000    10.0000 </r>
       <r>    -1.1055     0.0000    10.0000 </r>
       <r>    -0.9432     0.0000    10.0000 </r>
       <r>    -0.7808     0.0000    10.0000 </r>
       <r>    -0.6185     0.0000    10.0000 </r>
       <r>    -0.4562     0.0000    10.0000 </r>
       <r>    -0.2938     0.0000    10.0000 </r>
       <r>    -0.1315     0.0000    10.0000 </r>
       <r>     0.0309     0.0000    10.0000 </r>
       <r>     0.1932     0.0000    10.0000 </r>
       <r>     0.3555     0.0000    10.0000 </r>
       <r>     0.5179     0.0000    10.0000 </r>
       <r>     0.6802     0.0000    10.0000 </r>
       <r>     0.8426     0.0000    10.0000 </r>
       <r>     1.0049     0.0000    10.0000 </r>
       <r>     1.1672     0.0000    10.0000 </r>
       <r>     1.3296    -0.0000    10.0000 </r>
       <r>     1.4919    -0.0000    10.0000 </r>
       <r>     1.6543    -0.0000    10.0000 </r>
       <r>     1.8166    -0.0000    10.0000 </r>
       <r>     1.9789    -0.0578     9.9906 </r>
       <r>     2.1413     1.4511    10.2262 </r>
       <r>     2.3036    11.3203    12.0639 </r>
       <r>     2.4660    -0.8222    11.9304 </r>
       <r>     2.6283    10.7111    13.6693 </r>
       <r>     2.7906     2.1174    14.0130 </r>
       <r>     2.9530    -0.0801    14.0000 </r>
       <r>     3.1153    -0.0000    14.0000 </r>
       <r>     3.2777    -0.0000    14.0000 </r>
       <r>     3.4400     0.0000    14.0000 </r>
       <r>     3.6023     0.0000    14.0000 </r>
       <r>     3.7647     0.0000    14.0000 </r>
       <r>     3.9270     0.0000    14.0000 </r>
       <r>     4.0894     0.0000    14.0000 </r>
       <r>     4.2517     0.0000    14.0000 </r>
       <r>     4.4140     0.0000    14.0000 </r>
       <r>     4.5764     0.0000    14.0000 </r>
       <r>     4.7387     0.0000    14.0000 </r>
       <r>     4.9011     0.0000    14.0000 </r>
       <r>     5.0634     0.0000    14.0000 </r>
       <r>     5.2257     0.0000    14.0000 </r>
       <r>     5.3881     0.0000    14.0000 </r>
       <r>     5.5504     0.0000    14.0000 </r>
       <r>     5.7128     0.0000    14.0000 </r>
       <r>     5.8751     0.0000    14.0000 </r>
       <r>     6.0374     0.0000    14.0000 </r>
       <r>     6.1998     0.0000    14.0000 </r>
       <r>     6.3621     0.0000    14.0000 </r>
       <r>     6.5245     0.0000    14.0000 </r>
       <r>     6.6868     0.0000    14.0000 </r>
       <r>     6.8491     0.0000    14.0000 </r>
       <r>     7.0115     0.0000    14.0000 </r>
       <r>     7.1738     0.0000    14.0000 </r>
       <r>     7.3362     0.0000    14.0000 </r>
       <r>     7.4985     0.0000    14.0000 </r>
       <r>     7.6608     0.0000    14.0000 </r>
       <r>     7.8232     0.0000    14.0000 </r>
       <r>     7.9855     0.0000    14.0000 </r>
       <r>     8.1479     0.0000    14.0000 </r>
       <r>     8.3102     0.0000    14.0000 </r>
       <r>     8.4725     0.0000    14.0000 </r>
       <r>     8.6349     0.0000    14.0000 </r>
       <r>     8.7972     0.0000    14.0000 </r>
       <r>     8.9596     0.0000    14.0000 </r>
       <r>     9.1219     0.0000    14.0000 </r>
       <r>     9.2842     0.0000    14.0000 </r>
       <r>     9.4466     0.0000    14.0000 </r>
       <r>     9.6089     0.0000    14.0000 </r>
       <r>     9.7713     0.0000    14.0000 </r>
       <r>     9.9336     0.0000    14.0000 </r>
       <r>    10.0959     0.0000    14.0000 </r>
       <r>    10.2583     0.0000    14.0000 </r>
       <r>    10.4206     0.0000    14.0000 </r>
       <r>    10.5830     0.0000    14.0000 </r>
       <r>    10.7453     0.0000    14.0000 </r>
       <r>    10.9076    -0.0000    14.0000 </r>
       <r>    11.0700    -0.0000    14.0000 </r>
       <r>    11.2323    -0.0000    14.0000 </r>
       <r>    11.3947    -0.0000    14.0000 </r>
       <r>    11.5570    -0.0442    13.9928 </r>
       <r>    11.7193     1.0076    14.1564 </r>
       <r>    11.8817    11.6893    16.0541 </r>
       <r>    12.0440    -0.3256    16.0012 </r>
       <r>    12.2064    -0.0074    16.0000 </r>
       <r>    12.3687    -0.0000    16.0000 </r>
       <r>    12.5310    -0.0000    16.0000 </r>
       <r>    12.6934    -0.0000    16.0000 </r>
       <r>    12.8557    -0.0002    16.0000 </r>
       <r>    13.0181    -0.2566    15.9583 </r>
       <r>    13.1804     6.1563    16.9577 </r>
       <r>    13.3427     6.7055    18.0463 </r>
       <r>    13.5051    -0.2848    18.0001 </r>
       <r>    13.6674    -0.0003    18.0000 </r>
       <r>    13.8297    -0.0000    18.0000 </r>
       <r>    13.9921     0.0000    18.0000 </r>
       <r>    14.1544     0.0000    18.0000 </r>
       <r>    14.3168     0.0000    18.0000 </r>
       <r>    14.4791     0.0000    18.0000 </r>
       <r>    14.6414     0.0000    18.0000 </r>
       <r>    14.8038     0.0000    18.0000 </r>
       <r>    14.9661    -0.0000    18.0000 </r>
       <r>    15.1285    -0.0000    18.0000 </r>
       <r>    15.2908    -0.0000    18.0000 </r>
       <r>    15.4531    -0.0000    18.0000 </r>
       <r>    15.6155    -0.0298    17.9952 </r>
       <r>    15.7778     0.5065    18.0774 </r>
       <r>    15.9402    12.0229    20.0292 </r>
       <r>    16.1025    -0.1681    20.0019 </r>
       <r>    16.2648    -0.0118    20.0000 </r>
       <r>    16.4272    -0.0000    20.0000 </r>
       <r>    16.5895    -0.0000    20.0000 </r>
       <r>    16.7519     0.0000    20.0000 </r>
       <r>    16.9142     0.0000    20.0000 </r>
       <r>    17.0765     0.0000    20.0000 </r>
       <r>    17.2389     0.0000    20.0000 </r>
       <r>    17.4012     0.0000    20.0000 </r>
       <r>    17.5636     0.0000    20.0000 </r>
       <r>    17.7259     0.0000    20.0000 </r>
       <r>    17.8882     0.0000    20.0000 </r>
       <r>    18.0506     0.0000    20.0000 </r>
       <r>    18.2129     0.0000    20.0000 </r>
       <r>    18.3753     0.0000    20.0000 </r>
       <r>    18.5376     0.0000    20.0000 </r>
       <r>    18.6999     0.0000    20.0000 </r>
       <r>    18.8623    -0.0000    20.0000 </r>
       <r>    19.0246    -0.0000    20.0000 </r>
       <r>    19.1870    -0.0000    20.0000 </r>
       <r>    19.3493    -0.0000    20.0000 </r>
       <r>    19.5116    -0.0017    19.9997 </r>
       <r>    19.6740    -0.4231    19.9311 </r>
       <r>    19.8363     9.6858    21.5034 </r>
       <r>    19.9987     3.1788    22.0195 </r>
       <r>    20.1610    -0.1199    22.0000 </r>
       <r>    20.3233    -0.0000    22.0000 </r>
       <r>    20.4857    -0.0465    21.9924 </r>
       <r>    20.6480     1.0860    22.1687 </r>
       <r>    20.8104    11.6281    24.0565 </r>
       <r>    20.9727    -0.3409    24.0011 </r>
       <r>    21.1350    -0.0069    24.0000 </r>
       <r>    21.2974    -0.0000    24.0000 </r>
       <r>    21.4597    -0.0000    24.0000 </r>
       <r>    21.6221     0.0000    24.0000 </r>
       <r>    21.7844     0.0000    24.0000 </r>
       <r>    21.9467     0.0000    24.0000 </r>
       <r>    22.1091     0.0000    24.0000 </r>
       <r>    22.2714     0.0000    24.0000 </r>
       <r>    22.4338     0.0000    24.0000 </r>
       <r>    22.5961     0.0000    24.0000 </r>
       <r>    22.7584     0.0000    24.0000 </r>
       <r>    22.9208     0.0000    24.0000 </r>
      </set>
     </set>
    </array>
   </total>
  </dos>
 </calculation>
 <structure name="finalpos" >
  <crystal>
   <varray name="basis" >
    <v>       2.00000000       0.00000000       0.00000000 </v>
    <v>       0.00000000       3.00000000       0.00000000 </v>
    <v>       0.00000000       0.00000000       4.00000000 </v>
   </varray>
   <i name="volume">     24.00000000 </i>
   <varray name="rec_basis" >
    <v>       0.50000000       0.00000000       0.00000000 </v>
    <v>       0.00000000       0.33333333       0.00000000 </v>
    <v>       0.00000000       0.00000000       0.25000000 </v>
   </varray>
  </crystal>
  <varray name="positions" >
   <v>       0.50000000       0.50000000       0.56647405 </v>
   <v>       0.50000000       0.50000000       0.25590249 </v>
  </varray>
  <varray name="selective"  type="logical" >
   <v type="logical" >  T  T  T </v>
   <v type="logical" >  T  T  T </v>
  </varray>
  <nose>
   <v>      -3.00000000       0.00000000       0.00010000       0.00010000 </v>
  </nose>
 </structure>
</modeling>
