unknown system                          
           1
     2.000000    0.000000    0.000000
     0.000000    3.000000    0.000000
     0.000000    0.000000    4.000000
   N    O 
     1     1
Direct configuration=     1
   0.50000000  0.50000000  0.56044028
   0.50000000  0.50000000  0.26193626
Direct configuration=     2
   0.50000000  0.50000000  0.61723553
   0.50000000  0.50000000  0.20514101
Direct configuration=     3
   0.50000000  0.50000000  0.58537904
   0.50000000  0.50000000  0.23699750
Direct configuration=     4
   0.50000000  0.50000000  0.57073858
   0.50000000  0.50000000  0.25163796
Direct configuration=     5
   0.50000000  0.50000000  0.56724184
   0.50000000  0.50000000  0.25513471
Direct configuration=     6
   0.50000000  0.50000000  0.56643189
   0.50000000  0.50000000  0.25594465
Direct configuration=     7
   0.50000000  0.50000000  0.56647405
   0.50000000  0.50000000  0.25590249
