unknown system                          
   1.0000000000000000     
     2.000000    0.000000    0.000000
     0.000000    3.000000    0.000000
     0.000000    0.000000    4.000000
   N    O 
     1     1
Direct
  0.500000  0.500000  0.560440
  0.500000  0.500000  0.261936

   32   48   64
 0.12593     0.12697     0.13003     0.13498     0.14165     0.14980     0.15913     0.16934     0.18008     0.19093    
 0.20149     0.21130     0.21993     0.22704     0.23232     0.23557     0.23667     0.23557     0.23232     0.22704    
 0.21993     0.21130     0.20149     0.19093     0.18008     0.16934     0.15913     0.14980     0.14165     0.13498    
 0.13003     0.12697     0.12816     0.12924     0.13241     0.13756     0.14448     0.15292     0.16260     0.17317    
 0.18426     0.19549     0.20639     0.21652     0.22546     0.23282     0.23829     0.24166     0.24279     0.24166    
 0.23829     0.23282     0.22546     0.21652     0.20639     0.19549     0.18426     0.17317     0.16260     0.15292    
 0.14448     0.13756     0.13241     0.12924     0.13490     0.13609     0.13961     0.14533     0.15299     0.16233    
 0.17301     0.18466     0.19687     0.20919     0.22117     0.23231     0.24215     0.25027     0.25633     0.26007    
 0.26134     0.26007     0.25633     0.25027     0.24215     0.23231     0.22117     0.20919     0.19687     0.18466    
 0.17301     0.16233     0.15299     0.14533     0.13961     0.13609     0.14625     0.14764     0.15173     0.15837    
 0.16727     0.17810     0.19046     0.20393     0.21802     0.23225     0.24607     0.25895     0.27037     0.27982    
 0.28690     0.29128     0.29276     0.29128     0.28690     0.27982     0.27037     0.25895     0.24607     0.23225    
 0.21802     0.20393     0.19046     0.17810     0.16727     0.15837     0.15173     0.14764     0.16239     0.16403    
 0.16891     0.17681     0.18743     0.20035     0.21512     0.23120     0.24803     0.26503     0.28159     0.29705    
 0.31079     0.32223     0.33082     0.33616     0.33796     0.33616     0.33082     0.32223     0.31079     0.29705    
 0.28159     0.26503     0.24803     0.23120     0.21512     0.20035     0.18743     0.17681     0.16891     0.16403    
 0.18344     0.18542     0.19129     0.20082     0.21365     0.22932     0.24726     0.26685     0.28741     0.30822    
 0.32851     0.34754     0.36451     0.37867     0.38934     0.39598     0.39823     0.39598     0.38934     0.37867    
 0.36451     0.34754     0.32851     0.30822     0.28741     0.26685     0.24726     0.22932     0.21365     0.20082    
 0.19129     0.18542     0.20953     0.21192     0.21900     0.23055     0.24616     0.26531     0.28734     0.31149    
 0.33692     0.36273     0.38800     0.41174     0.43298     0.45074     0.46417     0.47254     0.47539     0.47254    
 0.46417     0.45074     0.43298     0.41174     0.38800     0.36273     0.33692     0.31149     0.28734     0.26531    
 0.24616     0.23055     0.21900     0.21192     0.24070     0.24359     0.25216     0.26619     0.28526     0.30876    
 0.33595     0.36589     0.39756     0.42984     0.46150     0.49134     0.51808     0.54049     0.55743     0.56801    
 0.57160     0.56801     0.55743     0.54049     0.51808     0.49134     0.46150     0.42984     0.39756     0.36589    
 0.33595     0.30876     0.28526     0.26619     0.25216     0.24359     0.27696     0.28046     0.29087     0.30795    
 0.33127     0.36018     0.39380     0.43102     0.47054     0.51095     0.55072     0.58825     0.62192     0.65017    
 0.67155     0.68490     0.68944     0.68490     0.67155     0.65017     0.62192     0.58825     0.55072     0.51095    
 0.47054     0.43102     0.39380     0.36018     0.33127     0.30795     0.29087     0.28046     0.31830     0.32253    
 0.33518     0.35600     0.38454     0.42009     0.46163     0.50782     0.55706     0.60756     0.65735     0.70442    
 0.74669     0.78215     0.80900     0.82576     0.83146     0.82576     0.80900     0.78215     0.74669     0.70442    
 0.65735     0.60756     0.55706     0.50782     0.46163     0.42009     0.38454     0.35600     0.33518     0.32253    
 0.36461     0.36975     0.38511     0.41046     0.44533     0.48892     0.54005     0.59712     0.65815     0.72090    
 0.78291     0.84158     0.89430     0.93857     0.97209     0.99302      1.0001     0.99302     0.97209     0.93857    
 0.89430     0.84158     0.78291     0.72090     0.65815     0.59712     0.54005     0.48892     0.44533     0.41046    
 0.38511     0.36975     0.41572     0.42194     0.44054     0.47129     0.51369     0.56685     0.62937     0.69937    
 0.77444     0.85181     0.92838      1.0010      1.0662      1.1211      1.1626      1.1885      1.1973      1.1885    
  1.1626      1.1211      1.0662      1.0010     0.92838     0.85181     0.77444     0.69937     0.62937     0.56685    
 0.51369     0.47129     0.44054     0.42194     0.47128     0.47876     0.50116     0.53823     0.58940     0.65368    
 0.72946     0.81450     0.90593      1.0004      1.0941      1.1830      1.2631      1.3304      1.3814      1.4132    
  1.4241      1.4132      1.3814      1.3304      1.2631      1.1830      1.0941      1.0004     0.90593     0.81450    
 0.72946     0.65368     0.58940     0.53823     0.50116     0.47876     0.53071     0.53964     0.56638     0.61063    
 0.67180     0.74872     0.83957     0.94173      1.0518      1.1659      1.2792      1.3870      1.4843      1.5661    
  1.6282      1.6670      1.6802      1.6670      1.6282      1.5661      1.4843      1.3870      1.2792      1.1659    
  1.0518     0.94173     0.83957     0.74872     0.67180     0.61063     0.56638     0.53964     0.59316     0.60370    
 0.63525     0.68750     0.75975     0.85071     0.95829      1.0795      1.2105      1.3464      1.4820      1.6112    
  1.7279      1.8264      1.9012      1.9480      1.9639      1.9480      1.9012      1.8264      1.7279      1.6112    
  1.4820      1.3464      1.2105      1.0795     0.95829     0.85071     0.75975     0.68750     0.63525     0.60370    
 0.65748     0.66977     0.70653     0.76742     0.85166     0.95780      1.0835      1.2255      1.3792      1.5392    
  1.6991      1.8521      1.9907      2.1078      2.1968      2.2525      2.2714      2.2525      2.1968      2.1078    
  1.9907      1.8521      1.6991      1.5392      1.3792      1.2255      1.0835     0.95780     0.85166     0.76742    
 0.70653     0.66977     0.72225     0.73637     0.77862     0.84859     0.94545      1.0676      1.2125      1.3763    
  1.5543      1.7400      1.9263      2.1049      2.2670      2.4042      2.5088      2.5743      2.5966      2.5743    
  2.5088      2.4042      2.2670      2.1049      1.9263      1.7400      1.5543      1.3763      1.2125      1.0676    
 0.94545     0.84859     0.77862     0.73637     0.78583     0.80182     0.84965     0.92891      1.0386      1.1771    
  1.3417      1.5282      1.7311      1.9437      2.1574      2.3626      2.5497      2.7085      2.8296      2.9056    
  2.9315      2.9056      2.8296      2.7085      2.5497      2.3626      2.1574      1.9437      1.7311      1.5282    
  1.3417      1.1771      1.0386     0.92891     0.84965     0.80182     0.84641     0.86422     0.91758      1.0060    
  1.1284      1.2831      1.4672      1.6762      1.9042      2.1437      2.3848      2.6174      2.8300      3.0104    
  3.1481      3.2345      3.2640      3.2345      3.1481      3.0104      2.8300      2.6174      2.3848      2.1437    
  1.9042      1.6762      1.4672      1.2831      1.1284      1.0060     0.91758     0.86422     0.90208     0.92165    
 0.98019      1.0772      1.2118      1.3819      1.5846      1.8151      2.0673      2.3323      2.6004      2.8596    
  3.0964      3.2977      3.4516      3.5484      3.5814      3.5484      3.4516      3.2977      3.0964      2.8596    
  2.6004      2.3323      2.0673      1.8151      1.5846      1.3819      1.2118      1.0772     0.98019     0.92165    
 0.95094     0.97209      1.0353      1.1402      1.2856      1.4697      1.6891      1.9394      2.2134      2.5021    
  2.7949      3.0780      3.3371      3.5578      3.7269      3.8332      3.8696      3.8332      3.7269      3.5578    
  3.3371      3.0780      2.7949      2.5021      2.2134      1.9394      1.6891      1.4697      1.2856      1.1402    
  1.0353     0.97209     0.99120      1.0136      1.0808      1.1922      1.3468      1.5427      1.7764      2.0433    
  2.3358      2.6449      2.9585      3.2620      3.5402      3.7777      3.9599      4.0745      4.1137      4.0745    
  3.9599      3.7777      3.5402      3.2620      2.9585      2.6449      2.3358      2.0433      1.7764      1.5427    
  1.3468      1.1922      1.0808      1.0136      1.0212      1.0447      1.1148      1.2312      1.3928      1.5975    
  1.8422      2.1218      2.4285      2.7531      3.0825      3.4017      3.6948      3.9453      4.1374      4.2583    
  4.2996      4.2583      4.1374      3.9453      3.6948      3.4017      3.0825      2.7531      2.4285      2.1218    
  1.8422      1.5975      1.3928      1.2312      1.1148      1.0447      1.0398      1.0639      1.1359      1.2554    
  1.4213      1.6316      1.8832      2.1706      2.4863      2.8207      3.1600      3.4891      3.7916      4.0502    
  4.2486      4.3734      4.4160      4.3734      4.2486      4.0502      3.7916      3.4891      3.1600      2.8207    
  2.4863      2.1706      1.8832      1.6316      1.4213      1.2554      1.1359      1.0639      1.0461      1.0703    
  1.1430      1.2635      1.4310      1.6432      1.8971      2.1872      2.5060      2.8436      3.1863      3.5188    
  3.8245      4.0860      4.2865      4.4126      4.4557      4.4126      4.2865      4.0860      3.8245      3.5188    
  3.1863      2.8436      2.5060      2.1872      1.8971      1.6432      1.4310      1.2635      1.1430      1.0703    
  1.0398      1.0639      1.1359      1.2554      1.4213      1.6316      1.8832      2.1706      2.4863      2.8207    
  3.1600      3.4891      3.7916      4.0502      4.2486      4.3734      4.4160      4.3734      4.2486      4.0502    
  3.7916      3.4891      3.1600      2.8207      2.4863      2.1706      1.8832      1.6316      1.4213      1.2554    
  1.1359      1.0639      1.0212      1.0447      1.1148      1.2312      1.3928      1.5975      1.8422      2.1218    
  2.4285      2.7531      3.0825      3.4017      3.6948      3.9453      4.1374      4.2583      4.2996      4.2583    
  4.1374      3.9453      3.6948      3.4017      3.0825      2.7531      2.4285      2.1218      1.8422      1.5975    
  1.3928      1.2312      1.1148      1.0447     0.99120      1.0136      1.0808      1.1922      1.3468      1.5427    
  1.7764      2.0433      2.3358      2.6449      2.9585      3.2620      3.5402      3.7777      3.9599      4.0745    
  4.1137      4.0745      3.9599      3.7777      3.5402      3.2620      2.9585      2.6449      2.3358      2.0433    
  1.7764      1.5427      1.3468      1.1922      1.0808      1.0136     0.95094     0.97209      1.0353      1.1402    
  1.2856      1.4697      1.6891      1.9394      2.2134      2.5021      2.7949      3.0780      3.3371      3.5578    
  3.7269      3.8332      3.8696      3.8332      3.7269      3.5578      3.3371      3.0780      2.7949      2.5021    
  2.2134      1.9394      1.6891      1.4697      1.2856      1.1402      1.0353     0.97209     0.90208     0.92165    
 0.98019      1.0772      1.2118      1.3819      1.5846      1.8151      2.0673      2.3323      2.6004      2.8596    
  3.0964      3.2977      3.4516      3.5484      3.5814      3.5484      3.4516      3.2977      3.0964      2.8596    
  2.6004      2.3323      2.0673      1.8151      1.5846      1.3819      1.2118      1.0772     0.98019     0.92165    
 0.84641     0.86422     0.91758      1.0060      1.1284      1.2831      1.4672      1.6762      1.9042      2.1437    
  2.3848      2.6174      2.8300      3.0104      3.1481      3.2345      3.2640      3.2345      3.1481      3.0104    
  2.8300      2.6174      2.3848      2.1437      1.9042      1.6762      1.4672      1.2831      1.1284      1.0060    
 0.91758     0.86422     0.78583     0.80182     0.84965     0.92891      1.0386      1.1771      1.3417      1.5282    
  1.7311      1.9437      2.1574      2.3626      2.5497      2.7085      2.8296      2.9056      2.9315      2.9056    
  2.8296      2.7085      2.5497      2.3626      2.1574      1.9437      1.7311      1.5282      1.3417      1.1771    
  1.0386     0.92891     0.84965     0.80182     0.72225     0.73637     0.77862     0.84859     0.94545      1.0676    
  1.2125      1.3763      1.5543      1.7400      1.9263      2.1049      2.2670      2.4042      2.5088      2.5743    
  2.5966      2.5743      2.5088      2.4042      2.2670      2.1049      1.9263      1.7400      1.5543      1.3763    
  1.2125      1.0676     0.94545     0.84859     0.77862     0.73637     0.65748     0.66977     0.70653     0.76742    
 0.85166     0.95780      1.0835      1.2255      1.3792      1.5392      1.6991      1.8521      1.9907      2.1078    
  2.1968      2.2525      2.2714      2.2525      2.1968      2.1078      1.9907      1.8521      1.6991      1.5392    
  1.3792      1.2255      1.0835     0.95780     0.85166     0.76742     0.70653     0.66977     0.59316     0.60370    
 0.63525     0.68750     0.75975     0.85071     0.95829      1.0795      1.2105      1.3464      1.4820      1.6112    
  1.7279      1.8264      1.9012      1.9480      1.9639      1.9480      1.9012      1.8264      1.7279      1.6112    
  1.4820      1.3464      1.2105      1.0795     0.95829     0.85071     0.75975     0.68750     0.63525     0.60370    
 0.53071     0.53964     0.56638     0.61063     0.67180     0.74872     0.83957     0.94173      1.0518      1.1659    
  1.2792      1.3870      1.4843      1.5661      1.6282      1.6670      1.6802      1.6670      1.6282      1.5661    
  1.4843      1.3870      1.2792      1.1659      1.0518     0.94173     0.83957     0.74872     0.67180     0.61063    
 0.56638     0.53964     0.47128     0.47876     0.50116     0.53823     0.58940     0.65368     0.72946     0.81450    
 0.90593      1.0004      1.0941      1.1830      1.2631      1.3304      1.3814      1.4132      1.4241      1.4132    
  1.3814      1.3304      1.2631      1.1830      1.0941      1.0004     0.90593     0.81450     0.72946     0.65368    
 0.58940     0.53823     0.50116     0.47876     0.41572     0.42194     0.44054     0.47129     0.51369     0.56685    
 0.62937     0.69937     0.77444     0.85181     0.92838      1.0010      1.0662      1.1211      1.1626      1.1885    
  1.1973      1.1885      1.1626      1.1211      1.0662      1.0010     0.92838     0.85181     0.77444     0.69937    
 0.62937     0.56685     0.51369     0.47129     0.44054     0.42194     0.36461     0.36975     0.38511     0.41046    
 0.44533     0.48892     0.54005     0.59712     0.65815     0.72090     0.78291     0.84158     0.89430     0.93857    
 0.97209     0.99302      1.0001     0.99302     0.97209     0.93857     0.89430     0.84158     0.78291     0.72090    
 0.65815     0.59712     0.54005     0.48892     0.44533     0.41046     0.38511     0.36975     0.31830     0.32253    
 0.33518     0.35600     0.38454     0.42009     0.46163     0.50782     0.55706     0.60756     0.65735     0.70442    
 0.74669     0.78215     0.80900     0.82576     0.83146     0.82576     0.80900     0.78215     0.74669     0.70442    
 0.65735     0.60756     0.55706     0.50782     0.46163     0.42009     0.38454     0.35600     0.33518     0.32253    
 0.27696     0.28046     0.29087     0.30795     0.33127     0.36018     0.39380     0.43102     0.47054     0.51095    
 0.55072     0.58825     0.62192     0.65017     0.67155     0.68490     0.68944     0.68490     0.67155     0.65017    
 0.62192     0.58825     0.55072     0.51095     0.47054     0.43102     0.39380     0.36018     0.33127     0.30795    
 0.29087     0.28046     0.24070     0.24359     0.25216     0.26619     0.28526     0.30876     0.33595     0.36589    
 0.39756     0.42984     0.46150     0.49134     0.51808     0.54049     0.55743     0.56801     0.57160     0.56801    
 0.55743     0.54049     0.51808     0.49134     0.46150     0.42984     0.39756     0.36589     0.33595     0.30876    
 0.28526     0.26619     0.25216     0.24359     0.20953     0.21192     0.21900     0.23055     0.24616     0.26531    
 0.28734     0.31149     0.33692     0.36273     0.38800     0.41174     0.43298     0.45074     0.46417     0.47254    
 0.47539     0.47254     0.46417     0.45074     0.43298     0.41174     0.38800     0.36273     0.33692     0.31149    
 0.28734     0.26531     0.24616     0.23055     0.21900     0.21192     0.18344     0.18542     0.19129     0.20082    
 0.21365     0.22932     0.24726     0.26685     0.28741     0.30822     0.32851     0.34754     0.36451     0.37867    
 0.38934     0.39598     0.39823     0.39598     0.38934     0.37867     0.36451     0.34754     0.32851     0.30822    
 0.28741     0.26685     0.24726     0.22932     0.21365     0.20082     0.19129     0.18542     0.16239     0.16403    
 0.16891     0.17681     0.18743     0.20035     0.21512     0.23120     0.24803     0.26503     0.28159     0.29705    
 0.31079     0.32223     0.33082     0.33616     0.33796     0.33616     0.33082     0.32223     0.31079     0.29705    
 0.28159     0.26503     0.24803     0.23120     0.21512     0.20035     0.18743     0.17681     0.16891     0.16403    
 0.14625     0.14764     0.15173     0.15837     0.16727     0.17810     0.19046     0.20393     0.21802     0.23225    
 0.24607     0.25895     0.27037     0.27982     0.28690     0.29128     0.29276     0.29128     0.28690     0.27982    
 0.27037     0.25895     0.24607     0.23225     0.21802     0.20393     0.19046     0.17810     0.16727     0.15837    
 0.15173     0.14764     0.13490     0.13609     0.13961     0.14533     0.15299     0.16233     0.17301     0.18466    
 0.19687     0.20919     0.22117     0.23231     0.24215     0.25027     0.25633     0.26007     0.26134     0.26007    
 0.25633     0.25027     0.24215     0.23231     0.22117     0.20919     0.19687     0.18466     0.17301     0.16233    
 0.15299     0.14533     0.13961     0.13609     0.12816     0.12924     0.13241     0.13756     0.14448     0.15292    
 0.16260     0.17317     0.18426     0.19549     0.20639     0.21652     0.22546     0.23282     0.23829     0.24166    
 0.24279     0.24166     0.23829     0.23282     0.22546     0.21652     0.20639     0.19549     0.18426     0.17317    
 0.16260     0.15292     0.14448     0.13756     0.13241     0.12924     0.13889     0.14009     0.14366     0.14944    
 0.15722     0.16670     0.17757     0.18945     0.20194     0.21458     0.22688     0.23833     0.24845     0.25680    
 0.26300     0.26683     0.26812     0.26683     0.26300     0.25680     0.24845     0.23833     0.22688     0.21458    
 0.20194     0.18945     0.17757     0.16670     0.15722     0.14944     0.14366     0.14009     0.14146     0.14271    
 0.14642     0.15242     0.16049     0.17033     0.18160     0.19391     0.20684     0.21991     0.23264     0.24450    
 0.25497     0.26362     0.27008     0.27406     0.27540     0.27406     0.27008     0.26362     0.25497     0.24450    
 0.23264     0.21991     0.20684     0.19391     0.18160     0.17033     0.16049     0.15242     0.14642     0.14271    
 0.14922     0.15061     0.15473     0.16140     0.17036     0.18126     0.19373     0.20733     0.22160     0.23602    
 0.25005     0.26314     0.27473     0.28433     0.29150     0.29593     0.29743     0.29593     0.29150     0.28433    
 0.27473     0.26314     0.25005     0.23602     0.22160     0.20733     0.19373     0.18126     0.17036     0.16140    
 0.15473     0.15061     0.16230     0.16392     0.16871     0.17647     0.18690     0.19959     0.21409     0.22990    
 0.24646     0.26320     0.27950     0.29474     0.30827     0.31952     0.32797     0.33321     0.33498     0.33321    
 0.32797     0.31952     0.30827     0.29474     0.27950     0.26320     0.24646     0.22990     0.21409     0.19959    
 0.18690     0.17647     0.16871     0.16392     0.18087     0.18280     0.18852     0.19780     0.21029     0.22551    
 0.24293     0.26193     0.28187     0.30205     0.32173     0.34018     0.35664     0.37036     0.38069     0.38711    
 0.38930     0.38711     0.38069     0.37036     0.35664     0.34018     0.32173     0.30205     0.28187     0.26193    
 0.24293     0.22551     0.21029     0.19780     0.18852     0.18280     0.20511     0.20744     0.21435     0.22560    
 0.24077     0.25935     0.28068     0.30403     0.32859     0.35352     0.37792     0.40085     0.42135     0.43851    
 0.45148     0.45956     0.46230     0.45956     0.45148     0.43851     0.42135     0.40085     0.37792     0.35352    
 0.32859     0.30403     0.28068     0.25935     0.24077     0.22560     0.21435     0.20744     0.23518     0.23801    
 0.24641     0.26012     0.27871     0.30159     0.32800     0.35705     0.38774     0.41901     0.44969     0.47861    
 0.50454     0.52628     0.54273     0.55300     0.55649     0.55300     0.54273     0.52628     0.50454     0.47861    
 0.44969     0.41901     0.38774     0.35705     0.32800     0.30159     0.27871     0.26012     0.24641     0.23801    
 0.27120     0.27464     0.28489     0.30168     0.32457     0.35289     0.38578     0.42215     0.46076     0.50024    
 0.53911     0.57581     0.60878     0.63646     0.65743     0.67053     0.67498     0.67053     0.65743     0.63646    
 0.60878     0.57581     0.53911     0.50024     0.46076     0.42215     0.38578     0.35289     0.32457     0.30168    
 0.28489     0.27464     0.31326     0.31746     0.33000     0.35062     0.37887     0.41402     0.45506     0.50068    
 0.54932     0.59924     0.64849     0.69511     0.73703     0.77223     0.79890     0.81555     0.82122     0.81555    
 0.79890     0.77223     0.73703     0.69511     0.64849     0.59924     0.54932     0.50068     0.45506     0.41402    
 0.37887     0.35062     0.33000     0.31746     0.36139     0.36654     0.38192     0.40728     0.44217     0.48576    
 0.53690     0.59400     0.65512     0.71802     0.78026     0.83922     0.89227     0.93686     0.97065     0.99176    
 0.99894     0.99176     0.97065     0.93686     0.89227     0.83922     0.78026     0.71802     0.65512     0.59400    
 0.53690     0.48576     0.44217     0.40728     0.38192     0.36654     0.41558     0.42189     0.44074     0.47191    
 0.51489     0.56878     0.63222     0.70331     0.77964     0.85843     0.93652      1.0106      1.0774      1.1335    
  1.1760      1.2026      1.2116      1.2026      1.1760      1.1335      1.0774      1.0106     0.93652     0.85843    
 0.77964     0.70331     0.63222     0.56878     0.51489     0.47191     0.44074     0.42189     0.47567     0.48337    
 0.50642     0.54455     0.59722     0.66342     0.74154     0.82933     0.92386      1.0217      1.1189      1.2113    
  1.2946      1.3647      1.4179      1.4511      1.4624      1.4511      1.4179      1.3647      1.2946      1.2113    
  1.1189      1.0217     0.92386     0.82933     0.74154     0.66342     0.59722     0.54455     0.50642     0.48337    
 0.54130     0.55065     0.57861     0.62492     0.68894     0.76952     0.86480     0.97212      1.0880      1.2082    
  1.3280      1.4421      1.5453      1.6322      1.6981      1.7393      1.7533      1.7393      1.6981      1.6322    
  1.5453      1.4421      1.3280      1.2082      1.0880     0.97212     0.86480     0.76952     0.68894     0.62492    
 0.57861     0.55065     0.61183     0.62306     0.65666     0.71232     0.78931     0.88632      1.0012      1.1309    
  1.2713      1.4175      1.5635      1.7031      1.8295      1.9362      2.0174      2.0682      2.0855      2.0682    
  2.0174      1.9362      1.8295      1.7031      1.5635      1.4175      1.2713      1.1309      1.0012     0.88632    
 0.78931     0.71232     0.65666     0.62306     0.68625     0.69958     0.73948     0.80556     0.89700      1.0123    
  1.1491      1.3039      1.4720      1.6475      1.8235      1.9923      2.1457      2.2756      2.3744      2.4363    
  2.4574      2.4363      2.3744      2.2756      2.1457      1.9923      1.8235      1.6475      1.4720      1.3039    
  1.1491      1.0123     0.89700     0.80556     0.73948     0.69958     0.76323     0.77884     0.82555     0.90292    
  1.0100      1.1453      1.3060      1.4883      1.6869      1.8950      2.1046      2.3063      2.4901      2.6461    
  2.7653      2.8400      2.8655      2.8400      2.7653      2.6461      2.4901      2.3063      2.1046      1.8950    
  1.6869      1.4883      1.3060      1.1453      1.0100     0.90292     0.82555     0.77884     0.84105     0.85906    
 0.91294      1.0022      1.1259      1.2822      1.4683      1.6801      1.9115      2.1551      2.4012      2.6389    
  2.8565      3.0418      3.1834      3.2724      3.3027      3.2724      3.1834      3.0418      2.8565      2.6389    
  2.4012      2.1551      1.9115      1.6801      1.4683      1.2822      1.1259      1.0022     0.91294     0.85906    
 0.91774     0.93818     0.99939      1.1008      1.2415      1.4195      1.6319      1.8743      2.1402      2.4209    
  2.7057      2.9821      3.2356      3.4517      3.6173      3.7215      3.7571      3.7215      3.6173      3.4517    
  3.2356      2.9821      2.7057      2.4209      2.1402      1.8743      1.6319      1.4195      1.2415      1.1008    
 0.99939     0.93818     0.99106      1.0139      1.0823      1.1958      1.3532      1.5529      1.7916      2.0648    
  2.3654      2.6840      3.0087      3.3242      3.6143      3.8627      4.0535      4.1738      4.2148      4.1738    
  4.0535      3.8627      3.6143      3.3242      3.0087      2.6840      2.3654      2.0648      1.7916      1.5529    
  1.3532      1.1958      1.0823      1.0139      1.0587      1.0838      1.1590      1.2839      1.4573      1.6777    
  1.9417      2.2447      2.5790      2.9348      3.2978      3.6517      3.9785      4.2588      4.4743      4.6101    
  4.6565      4.6101      4.4743      4.2588      3.9785      3.6517      3.2978      2.9348      2.5790      2.2447    
  1.9417      1.6777      1.4573      1.2839      1.1590      1.0838      1.1182      1.1453      1.2267      1.3618    
  1.5498      1.7889      2.0761      2.4063      2.7718      3.1615      3.5600      3.9500      4.3108      4.6204    
  4.8586      5.0088      5.0601      5.0088      4.8586      4.6204      4.3108      3.9500      3.5600      3.1615    
  2.7718      2.4063      2.0761      1.7889      1.5498      1.3618      1.2267      1.1453      1.1673      1.1962    
  1.2827      1.4265      1.6267      1.8817      2.1886      2.5420      2.9343      3.3529      3.7823      4.2034    
  4.5931      4.9278      5.1853      5.3478      5.4034      5.3478      5.1853      4.9278      4.5931      4.2034    
  3.7823      3.3529      2.9343      2.5420      2.1886      1.8817      1.6267      1.4265      1.2827      1.1962    
  1.2040      1.2342      1.3246      1.4750      1.6845      1.9517      2.2736      2.6449      3.0576      3.4986    
  3.9518      4.3967      4.8087      5.1625      5.4351      5.6072      5.6661      5.6072      5.4351      5.1625    
  4.8087      4.3967      3.9518      3.4986      3.0576      2.6449      2.2736      1.9517      1.6845      1.4750    
  1.3246      1.2342      1.2268      1.2578      1.3506      1.5051      1.7204      1.9953      2.3265      2.7092    
  3.1347      3.5898      4.0582      4.5180      4.9439      5.3099      5.5920      5.7702      5.8312      5.7702    
  5.5920      5.3099      4.9439      4.5180      4.0582      3.5898      3.1347      2.7092      2.3265      1.9953    
  1.7204      1.5051      1.3506      1.2578      1.2345      1.2657      1.3594      1.5153      1.7326      2.0100    
  2.3445      2.7311      3.1610      3.6209      4.0944      4.5594      4.9900      5.3602      5.6456      5.8259    
  5.8875      5.8259      5.6456      5.3602      4.9900      4.5594      4.0944      3.6209      3.1610      2.7311    
  2.3445      2.0100      1.7326      1.5153      1.3594      1.2657      1.2268      1.2578      1.3506      1.5051    
  1.7204      1.9953      2.3265      2.7092      3.1347      3.5898      4.0582      4.5180      4.9439      5.3099    
  5.5920      5.7702      5.8312      5.7702      5.5920      5.3099      4.9439      4.5180      4.0582      3.5898    
  3.1347      2.7092      2.3265      1.9953      1.7204      1.5051      1.3506      1.2578      1.2040      1.2342    
  1.3246      1.4750      1.6845      1.9517      2.2736      2.6449      3.0576      3.4986      3.9518      4.3967    
  4.8087      5.1625      5.4351      5.6072      5.6661      5.6072      5.4351      5.1625      4.8087      4.3967    
  3.9518      3.4986      3.0576      2.6449      2.2736      1.9517      1.6845      1.4750      1.3246      1.2342    
  1.1673      1.1962      1.2827      1.4265      1.6267      1.8817      2.1886      2.5420      2.9343      3.3529    
  3.7823      4.2034      4.5931      4.9278      5.1853      5.3478      5.4034      5.3478      5.1853      4.9278    
  4.5931      4.2034      3.7823      3.3529      2.9343      2.5420      2.1886      1.8817      1.6267      1.4265    
  1.2827      1.1962      1.1182      1.1453      1.2267      1.3618      1.5498      1.7889      2.0761      2.4063    
  2.7718      3.1615      3.5600      3.9500      4.3108      4.6204      4.8586      5.0088      5.0601      5.0088    