unknown system                          
   1.0000000000000000     
     2.000000    0.000000    0.000000
     0.000000    3.000000    0.000000
     0.000000    0.000000    4.000000
   N    O 
     1     1
Direct
  0.500000  0.500000  0.566480
  0.500000  0.500000  0.255897

   32   48   64
 0.13801616031E+00 0.13913274798E+00 0.14243528469E+00 0.14779205589E+00 0.15499731467E+00
 0.16379279145E+00 0.17387362012E+00 0.18489884839E+00 0.19648051163E+00 0.20819449975E+00
 0.21958181790E+00 0.23016324125E+00 0.23950046500E+00 0.24719155132E+00 0.25291136784E+00
 0.25643121883E+00 0.25761924949E+00 0.25643121883E+00 0.25291136784E+00 0.24719155132E+00
 0.23950046500E+00 0.23016324125E+00 0.21958181790E+00 0.20819449975E+00 0.19648051163E+00
 0.18489884839E+00 0.17387362012E+00 0.16379279145E+00 0.15499731467E+00 0.14779205589E+00
 0.14243528469E+00 0.13913274798E+00 0.14045330617E+00 0.14161194005E+00 0.14504035056E+00
 0.15059803976E+00 0.15807125702E+00 0.16718592076E+00 0.17762617306E+00 0.18903201103E+00
 0.20100770832E+00 0.21311155676E+00 0.22487270059E+00 0.23581823467E+00 0.24547225697E+00
 0.25342560059E+00 0.25934813457E+00 0.26299868398E+00 0.26423122995E+00 0.26299868398E+00
 0.25934813457E+00 0.25342560059E+00 0.24547225697E+00 0.23581823467E+00 0.22487270059E+00
 0.21311155676E+00 0.20100770832E+00 0.18903201103E+00 0.17762617306E+00 0.16718592076E+00
 0.15807125702E+00 0.15059803976E+00 0.14504035056E+00 0.14161194005E+00 0.14780928228E+00
 0.14909439707E+00 0.15289385262E+00 0.15905085970E+00 0.16732038155E+00 0.17739425575E+00
 0.18891149421E+00 0.20147399620E+00 0.21463975313E+00 0.22793590827E+00 0.24085831923E+00
 0.25288194781E+00 0.26351852930E+00 0.27230976022E+00 0.27887157309E+00 0.28292194952E+00
 0.28429137724E+00 0.28292194952E+00 0.27887157309E+00 0.27230976022E+00 0.26351852930E+00
 0.25288194781E+00 0.24085831923E+00 0.22793590827E+00 0.21463975313E+00 0.20147399620E+00
 0.18891149421E+00 0.17739425575E+00 0.16732038155E+00 0.15905085970E+00 0.15289385262E+00
 0.14909439707E+00 0.16020704700E+00 0.16169698330E+00 0.16610426220E+00 0.17324406493E+00
 0.18283220280E+00 0.19450284700E+00 0.20783458442E+00 0.22235643286E+00 0.23756457773E+00
 0.25291538193E+00 0.26784048657E+00 0.28176747838E+00 0.29411063659E+00 0.30434116325E+00
 0.31200617281E+00 0.31675429545E+00 0.31836201542E+00 0.31675429545E+00 0.31200617281E+00
 0.30434116325E+00 0.29411063659E+00 0.28176747838E+00 0.26784048657E+00 0.25291538193E+00
 0.23756457773E+00 0.22235643286E+00 0.20783458442E+00 0.19450284700E+00 0.18283220280E+00
 0.17324406493E+00 0.16610426220E+00 0.16169698330E+00 0.17780653719E+00 0.17957813813E+00
 0.18481935521E+00 0.19332059218E+00 0.20474916814E+00 0.21867764918E+00 0.23460034187E+00
 0.25195952850E+00 0.27014822274E+00 0.28853003266E+00 0.30643699555E+00 0.32317291744E+00
 0.33806689690E+00 0.35046395328E+00 0.35978282664E+00 0.36556824913E+00 0.36753045714E+00
 0.36556824913E+00 0.35978282664E+00 0.35046395328E+00 0.33806689690E+00 0.32317291744E+00
 0.30643699555E+00 0.28853003267E+00 0.27014822274E+00 0.25195952850E+00 0.23460034187E+00
 0.21867764918E+00 0.20474916814E+00 0.19332059218E+00 0.18481935521E+00 0.17957813813E+00
 0.20076552617E+00 0.20289409861E+00 0.20920185767E+00 0.21945479500E+00 0.23328069388E+00
 0.25018228881E+00 0.26956556699E+00 0.29075333527E+00 0.31301446098E+00 0.33556478013E+00
 0.35758585049E+00 0.37824334792E+00 0.39667142152E+00 0.41205198868E+00 0.42365014556E+00
 0.43087066169E+00 0.43332244316E+00 0.43087066169E+00 0.42365014556E+00 0.41205198868E+00
 0.39667142152E+00 0.37824334792E+00 0.35758585049E+00 0.33556478013E+00 0.31301446098E+00
 0.29075333527E+00 0.26956556699E+00 0.25018228881E+00 0.23328069388E+00 0.21945479500E+00
 0.20920185767E+00 0.20289409861E+00 0.22920389961E+00 0.23177531269E+00 0.23940625846E+00
 0.25185245483E+00 0.26870596747E+00 0.28940876003E+00 0.31326070532E+00 0.33945042367E+00
 0.36706870999E+00 0.39514372541E+00 0.42264712896E+00 0.44850098415E+00 0.47163991595E+00
 0.49100696929E+00 0.50563879179E+00 0.51475804008E+00 0.51785730421E+00 0.51475804008E+00
 0.50563879179E+00 0.49100696929E+00 0.47163991595E+00 0.44850098415E+00 0.42264712896E+00
 0.39514372541E+00 0.36706870999E+00 0.33945042367E+00 0.31326070532E+00 0.28940876003E+00
 0.26870596747E+00 0.25185245483E+00 0.23940625846E+00 0.23177531269E+00 0.26319769129E+00
 0.26631277347E+00 0.27557845050E+00 0.29074473312E+00 0.31138376265E+00 0.33687246503E+00
 0.36640170850E+00 0.39898482458E+00 0.43350019561E+00 0.46870951643E+00 0.50329761781E+00
 0.53590735380E+00 0.56513155753E+00 0.58962050458E+00 0.60814691629E+00 0.61970717663E+00
 0.62363751122E+00 0.61970717663E+00 0.60814691629E+00 0.58962050458E+00 0.56513155753E+00
 0.53590735380E+00 0.50329761781E+00 0.46870951643E+00 0.43350019561E+00 0.39898482458E+00
 0.36640170850E+00 0.33687246503E+00 0.31138376265E+00 0.29074473312E+00 0.27557845050E+00
 0.26631277347E+00 0.30277893508E+00 0.30656623302E+00 0.31784956694E+00 0.33638563527E+00
 0.36172600923E+00 0.39318804306E+00 0.42982753299E+00 0.47045859702E+00 0.51367473452E+00
 0.55791240641E+00 0.60148539262E+00 0.64261858218E+00 0.67954547843E+00 0.71052401316E+00
 0.73396841609E+00 0.74859719090E+00 0.75357162542E+00 0.74859719090E+00 0.73396841609E+00
 0.71052401316E+00 0.67954547843E+00 0.64261858218E+00 0.60148539262E+00 0.55791240641E+00
 0.51367473452E+00 0.47045859702E+00 0.42982753299E+00 0.39318804306E+00 0.36172600923E+00
 0.33638563527E+00 0.31784956694E+00 0.30656623302E+00 0.34794323412E+00 0.35255715115E+00
 0.36632807942E+00 0.38901390561E+00 0.42015057652E+00 0.45897765799E+00 0.50440279958E+00
 0.55498550582E+00 0.60898945498E+00 0.66442670664E+00 0.71914191206E+00 0.77089220233E+00
 0.81736845664E+00 0.85636310810E+00 0.88588229905E+00 0.90430659255E+00 0.91057137519E+00
 0.90430659255E+00 0.88588229905E+00 0.85636310810E+00 0.81736845664E+00 0.77089220233E+00
 0.71914191206E+00 0.66442670664E+00 0.60898945498E+00 0.55498550582E+00 0.50440279958E+00
 0.45897765799E+00 0.42015057652E+00 0.38901390561E+00 0.36632807942E+00 0.35255715115E+00
 0.39862487391E+00 0.40424990362E+00 0.42105324126E+00 0.44879537565E+00 0.48697802207E+00
 0.53475412805E+00 0.59084199874E+00 0.65351659448E+00 0.72062768302E+00 0.78969917531E+00
 0.85800812557E+00 0.92267018902E+00 0.98081203293E+00 0.10296246728E+01 0.10665750417E+01
 0.10896323427E+01 0.10974721636E+01 0.10896323427E+01 0.10665750417E+01 0.10296246728E+01
 0.98081203293E+00 0.92267018902E+00 0.85800812557E+00 0.78969917531E+00 0.72062768302E+00
 0.65351659448E+00 0.59084199874E+00 0.53475412805E+00 0.48697802207E+00 0.44879537565E+00
 0.42105324126E+00 0.40424990362E+00 0.45465375381E+00 0.46149034084E+00 0.48193154608E+00
 0.51572094105E+00 0.56231753831E+00 0.62075272252E+00 0.68953702047E+00 0.76659915173E+00
 0.84933787105E+00 0.93468378877E+00 0.10192410518E+01 0.10994359954E+01 0.11715860359E+01
 0.12321823865E+01 0.12780693206E+01 0.13067150558E+01 0.13164563540E+01 0.13067150558E+01
 0.12780693206E+01 0.12321823865E+01 0.11715860359E+01 0.10994359954E+01 0.10192410518E+01
 0.93468378877E+00 0.84933787105E+00 0.76659915173E+00 0.68953702047E+00 0.62075272252E+00
 0.56231753831E+00 0.51572094105E+00 0.48193154608E+00 0.46149034084E+00 0.51567535135E+00
 0.52393663196E+00 0.54863993135E+00 0.58950813662E+00 0.64592509201E+00 0.71678908223E+00
 0.80035655806E+00 0.89419530672E+00 0.99517260645E+00 0.10995833727E+01 0.12032602075E+01
 0.13017233627E+01 0.13904744322E+01 0.14651123027E+01 0.15216722752E+01 0.15569810046E+01
 0.15689894719E+01 0.15569810046E+01 0.15216722752E+01 0.14651123027E+01 0.13904744322E+01
 0.13017233627E+01 0.12032602075E+01 0.10995833727E+01 0.99517260645E+00 0.89419530672E+00
 0.80035655806E+00 0.71678908223E+00 0.64592509201E+00 0.58950813662E+00 0.54863993135E+00
 0.52393663196E+00 0.58108431155E+00 0.59097186422E+00 0.62055014353E+00 0.66949322928E+00
 0.73710575535E+00 0.82211439399E+00 0.92252324468E+00 0.10354859485E+01 0.11573393458E+01
 0.12836405096E+01 0.14093529697E+01 0.15290779810E+01 0.16371561088E+01 0.17281506165E+01
 0.17971855833E+01 0.18403324973E+01 0.18550110636E+01 0.18403324973E+01 0.17971855833E+01
 0.17281506165E+01 0.16371561088E+01 0.15290779810E+01 0.14093529697E+01 0.12836405096E+01
 0.11573393458E+01 0.10354859485E+01 0.92252324468E+00 0.82211439399E+00 0.73710575535E+00
 0.66949322928E+00 0.62055014353E+00 0.59097186422E+00 0.64995691907E+00 0.66165939689E+00
 0.69665650354E+00 0.75458123474E+00 0.83462556771E+00 0.93535795139E+00 0.10544936611E+01
 0.11888029455E+01 0.13340184868E+01 0.14849670059E+01 0.16356663407E+01 0.17794806168E+01
 0.19096764363E+01 0.20195741831E+01 0.21030740737E+01 0.21552887648E+01 0.21730610630E+01
 0.21552887648E+01 0.21030740737E+01 0.20195741831E+01 0.19096764363E+01 0.17794806168E+01
 0.16356663407E+01 0.14849670059E+01 0.13340184868E+01 0.11888029455E+01 0.10544936611E+01
 0.93535795139E+00 0.83462556771E+00 0.75458123474E+00 0.69665650354E+00 0.66165939689E+00
 0.72104627195E+00 0.73470650708E+00 0.77557287090E+00 0.84320719672E+00 0.93671355577E+00
 0.10544725564E+01 0.11939605598E+01 0.13515172275E+01 0.15223434068E+01 0.17004313923E+01
 0.18787142237E+01 0.20495302241E+01 0.22045325631E+01 0.23355346432E+01 0.24352047048E+01
 0.24976196154E+01 0.25188766756E+01 0.24976196154E+01 0.24352047048E+01 0.23355346432E+01
 0.22045325631E+01 0.20495302241E+01 0.18787142237E+01 0.17004313923E+01 0.15223434068E+01
 0.13515172275E+01 0.11939605598E+01 0.10544725564E+01 0.93671355577E+00 0.84320719672E+00
 0.77557287090E+00 0.73470650708E+00 0.79277878658E+00 0.80850419160E+00 0.85553102725E+00
 0.93338534764E+00 0.10410553004E+01 0.11767938314E+01 0.13378073374E+01 0.15201045383E+01
 0.17182722816E+01 0.19254782918E+01 0.21337622575E+01 0.23336908752E+01 0.25155606460E+01
 0.26698087751E+01 0.27874769538E+01 0.28612579162E+01 0.28864010860E+01 0.28612579162E+01
 0.27874769538E+01 0.26698087751E+01 0.25155606460E+01 0.23336908752E+01 0.21337622575E+01
 0.19254782918E+01 0.17182722816E+01 0.15201045383E+01 0.13378073374E+01 0.11767938314E+01
 0.10410553004E+01 0.93338534764E+00 0.85553102725E+00 0.80850419160E+00 0.86332812901E+00
 0.88115084887E+00 0.93446181159E+00 0.10227352602E+01 0.11448914156E+01 0.12990484929E+01
 0.14822240015E+01 0.16900781683E+01 0.19166152475E+01 0.21543925708E+01 0.23938074654E+01
 0.26244918926E+01 0.28352248757E+01 0.30142359824E+01 0.31508556470E+01 0.32365418560E+01
 0.32657532188E+01 0.32365418560E+01 0.31508556470E+01 0.30142359824E+01 0.28352248757E+01
 0.26244918926E+01 0.23938074654E+01 0.21543925708E+01 0.19166152475E+01 0.16900781683E+01
 0.14822240015E+01 0.12990484929E+01 0.11448914156E+01 0.10227352602E+01 0.93446181159E+00
 0.88115084887E+00 0.93066538919E+00 0.95054294880E+00 0.10100502447E+01 0.11085880857E+01
 0.12450733654E+01 0.14174795807E+01 0.16227407989E+01 0.18560833651E+01 0.21112832459E+01
 0.23795610910E+01 0.26507588647E+01 0.29130764564E+01 0.31528190525E+01 0.33566952291E+01
 0.35125539615E+01 0.36104939955E+01 0.36438976235E+01 0.36104939955E+01 0.35125539615E+01
 0.33566952291E+01 0.31528190525E+01 0.29130764564E+01 0.26507588647E+01 0.23795610910E+01
 0.21112832459E+01 0.18560833651E+01 0.16227407989E+01 0.14174795807E+01 0.12450733654E+01
 0.11085880857E+01 0.10100502447E+01 0.95054294880E+00 0.99262609128E+00 0.10144797444E+01
 0.10798103422E+01 0.11881117371E+01 0.13381576754E+01 0.15280123700E+01 0.17542999308E+01
 0.20122717998E+01 0.22948549706E+01 0.25928071178E+01 0.28951239696E+01 0.31876260909E+01
 0.34554980232E+01 0.36839078214E+01 0.38589443971E+01 0.39690405763E+01 0.40066305594E+01
 0.39690405763E+01 0.38589443971E+01 0.36839078214E+01 0.34554980232E+01 0.31876260909E+01
 0.28951239696E+01 0.25928071178E+01 0.22948549706E+01 0.20122717998E+01 0.17542999308E+01
 0.15280123700E+01 0.13381576754E+01 0.11881117371E+01 0.10798103422E+01 0.10144797444E+01
 0.10470881047E+01 0.10706872216E+01 0.11412858657E+01 0.12583459832E+01 0.14206778364E+01
 0.16262835359E+01 0.18717408316E+01 0.21521062392E+01 0.24596958763E+01 0.27851478996E+01
 0.31156355325E+01 0.34359060531E+01 0.37300166512E+01 0.39813329181E+01 0.41741214143E+01
 0.42954221580E+01 0.43368414533E+01 0.42954221580E+01 0.41741214143E+01 0.39813329181E+01
 0.37300166512E+01 0.34359060531E+01 0.31156355325E+01 0.27851478996E+01 0.24596958763E+01
 0.21521062392E+01 0.18717408316E+01 0.16262835359E+01 0.14206778364E+01 0.12583459832E+01
 0.11412858657E+01 0.10706872216E+01 0.10919918681E+01 0.11170427856E+01 0.11920803806E+01
 0.13164949788E+01 0.14892043991E+01 0.17080926002E+01 0.19698552066E+01 0.22691419768E+01
 0.25981987276E+01 0.29470184076E+01 0.33014271854E+01 0.36456527484E+01 0.39624363565E+01
 0.42334178448E+01 0.44412935901E+01 0.45721155974E+01 0.46167717788E+01 0.45721155974E+01
 0.44412935901E+01 0.42334178448E+01 0.39624363565E+01 0.36456527484E+01 0.33014271854E+01
 0.29470184076E+01 0.25981987276E+01 0.22691419768E+01 0.19698552066E+01 0.17080926002E+01
 0.14892043991E+01 0.13164949788E+01 0.11920803806E+01 0.11170427856E+01 0.11255185173E+01
 0.11516738117E+01 0.12300678712E+01 0.13600637069E+01 0.15406545905E+01 0.17696591000E+01
 0.20438585155E+01 0.23575814421E+01 0.27031646514E+01 0.30697507473E+01 0.34425308779E+01
 0.38053498540E+01 0.41395644565E+01 0.44255061910E+01 0.46448755400E+01 0.47829617072E+01
 0.48300898516E+01 0.47829617072E+01 0.46448755400E+01 0.44255061910E+01 0.41395644565E+01
 0.38053498540E+01 0.34425308779E+01 0.30697507473E+01 0.27031646514E+01 0.23575814421E+01
 0.20438585155E+01 0.17696591000E+01 0.15406545905E+01 0.13600637069E+01 0.12300678712E+01
 0.11516738117E+01 0.11462427579E+01 0.11730946371E+01 0.12535768546E+01 0.13870696066E+01
 0.15725764808E+01 0.18079369002E+01 0.20899149790E+01 0.24127252871E+01 0.27687027393E+01
 0.31464056811E+01 0.35308350637E+01 0.39053717859E+01 0.42505298226E+01 0.45458720109E+01
 0.47724698141E+01 0.49151033324E+01 0.49637883844E+01 0.49151033324E+01 0.47724698141E+01
 0.45458720109E+01 0.42505298226E+01 0.39053717859E+01 0.35308350637E+01 0.31464056811E+01
 0.27687027393E+01 0.24127252871E+01 0.20899149790E+01 0.18079369002E+01 0.15725764808E+01
 0.13870696066E+01 0.12535768546E+01 0.11730946371E+01 0.11532563914E+01 0.11803443450E+01
 0.12615373600E+01 0.13962197358E+01 0.15834003520E+01 0.18209244880E+01 0.21055554512E+01
 0.24314652445E+01 0.27909916935E+01 0.31724854199E+01 0.35608870991E+01 0.39394564446E+01
 0.42883440379E+01 0.45868673011E+01 0.48159147190E+01 0.49601008157E+01 0.50093177835E+01
 0.49601008157E+01 0.48159147190E+01 0.45868673011E+01 0.42883440379E+01 0.39394564446E+01
 0.35608870991E+01 0.31724854199E+01 0.27909916935E+01 0.24314652445E+01 0.21055554512E+01
 0.18209244880E+01 0.15834003520E+01 0.13962197358E+01 0.12615373600E+01 0.11803443450E+01
 0.11462427579E+01 0.11730946371E+01 0.12535768546E+01 0.13870696066E+01 0.15725764808E+01
 0.18079369002E+01 0.20899149790E+01 0.24127252871E+01 0.27687027393E+01 0.31464056811E+01
 0.35308350637E+01 0.39053717859E+01 0.42505298226E+01 0.45458720109E+01 0.47724698141E+01
 0.49151033324E+01 0.49637883844E+01 0.49151033324E+01 0.47724698141E+01 0.45458720109E+01
 0.42505298226E+01 0.39053717859E+01 0.35308350637E+01 0.31464056811E+01 0.27687027393E+01
 0.24127252871E+01 0.20899149790E+01 0.18079369002E+01 0.15725764808E+01 0.13870696066E+01
 0.12535768546E+01 0.11730946371E+01 0.11255185173E+01 0.11516738117E+01 0.12300678712E+01
 0.13600637069E+01 0.15406545905E+01 0.17696591000E+01 0.20438585155E+01 0.23575814421E+01
 0.27031646514E+01 0.30697507473E+01 0.34425308779E+01 0.38053498540E+01 0.41395644565E+01
 0.44255061910E+01 0.46448755400E+01 0.47829617072E+01 0.48300898516E+01 0.47829617072E+01
 0.46448755400E+01 0.44255061910E+01 0.41395644565E+01 0.38053498540E+01 0.34425308779E+01
 0.30697507473E+01 0.27031646514E+01 0.23575814421E+01 0.20438585155E+01 0.17696591000E+01
 0.15406545905E+01 0.13600637069E+01 0.12300678712E+01 0.11516738117E+01 0.10919918681E+01
 0.11170427856E+01 0.11920803806E+01 0.13164949788E+01 0.14892043991E+01 0.17080926002E+01
 0.19698552066E+01 0.22691419768E+01 0.25981987276E+01 0.29470184076E+01 0.33014271854E+01
 0.36456527484E+01 0.39624363565E+01 0.42334178448E+01 0.44412935901E+01 0.45721155974E+01
 0.46167717788E+01 0.45721155974E+01 0.44412935901E+01 0.42334178448E+01 0.39624363565E+01
 0.36456527484E+01 0.33014271854E+01 0.29470184076E+01 0.25981987276E+01 0.22691419768E+01
 0.19698552066E+01 0.17080926002E+01 0.14892043991E+01 0.13164949788E+01 0.11920803806E+01
 0.11170427856E+01 0.10470881047E+01 0.10706872216E+01 0.11412858657E+01 0.12583459832E+01
 0.14206778364E+01 0.16262835359E+01 0.18717408316E+01 0.21521062392E+01 0.24596958763E+01
 0.27851478996E+01 0.31156355325E+01 0.34359060531E+01 0.37300166512E+01 0.39813329181E+01
 0.41741214143E+01 0.42954221580E+01 0.43368414533E+01 0.42954221580E+01 0.41741214143E+01
 0.39813329181E+01 0.37300166512E+01 0.34359060531E+01 0.31156355325E+01 0.27851478996E+01
 0.24596958763E+01 0.21521062392E+01 0.18717408316E+01 0.16262835359E+01 0.14206778364E+01
 0.12583459832E+01 0.11412858657E+01 0.10706872216E+01 0.99262609128E+00 0.10144797444E+01
 0.10798103422E+01 0.11881117371E+01 0.13381576754E+01 0.15280123700E+01 0.17542999308E+01
 0.20122717998E+01 0.22948549706E+01 0.25928071178E+01 0.28951239696E+01 0.31876260909E+01
 0.34554980232E+01 0.36839078214E+01 0.38589443971E+01 0.39690405763E+01 0.40066305594E+01
 0.39690405763E+01 0.38589443971E+01 0.36839078214E+01 0.34554980232E+01 0.31876260909E+01
 0.28951239696E+01 0.25928071178E+01 0.22948549706E+01 0.20122717998E+01 0.17542999308E+01
 0.15280123700E+01 0.13381576754E+01 0.11881117371E+01 0.10798103422E+01 0.10144797444E+01
 0.93066538919E+00 0.95054294880E+00 0.10100502447E+01 0.11085880857E+01 0.12450733654E+01
 0.14174795807E+01 0.16227407989E+01 0.18560833651E+01 0.21112832459E+01 0.23795610910E+01
 0.26507588647E+01 0.29130764564E+01 0.31528190525E+01 0.33566952291E+01 0.35125539615E+01
 0.36104939955E+01 0.36438976235E+01 0.36104939955E+01 0.35125539615E+01 0.33566952291E+01
 0.31528190525E+01 0.29130764564E+01 0.26507588647E+01 0.23795610910E+01 0.21112832459E+01
 0.18560833651E+01 0.16227407989E+01 0.14174795807E+01 0.12450733654E+01 0.11085880857E+01
 0.10100502447E+01 0.95054294880E+00 0.86332812901E+00 0.88115084887E+00 0.93446181159E+00
 0.10227352602E+01 0.11448914156E+01 0.12990484929E+01 0.14822240015E+01 0.16900781683E+01
 0.19166152475E+01 0.21543925708E+01 0.23938074654E+01 0.26244918926E+01 0.28352248757E+01
 0.30142359824E+01 0.31508556470E+01 0.32365418560E+01 0.32657532188E+01 0.32365418560E+01
 0.31508556470E+01 0.30142359824E+01 0.28352248757E+01 0.26244918926E+01 0.23938074654E+01
 0.21543925708E+01 0.19166152475E+01 0.16900781683E+01 0.14822240015E+01 0.12990484929E+01
 0.11448914156E+01 0.10227352602E+01 0.93446181159E+00 0.88115084887E+00 0.79277878658E+00
 0.80850419160E+00 0.85553102725E+00 0.93338534764E+00 0.10410553004E+01 0.11767938314E+01
 0.13378073374E+01 0.15201045383E+01 0.17182722816E+01 0.19254782918E+01 0.21337622575E+01
 0.23336908752E+01 0.25155606460E+01 0.26698087751E+01 0.27874769538E+01 0.28612579162E+01
 0.28864010860E+01 0.28612579162E+01 0.27874769538E+01 0.26698087751E+01 0.25155606460E+01
 0.23336908752E+01 0.21337622575E+01 0.19254782918E+01 0.17182722816E+01 0.15201045383E+01
 0.13378073374E+01 0.11767938314E+01 0.10410553004E+01 0.93338534764E+00 0.85553102725E+00
 0.80850419160E+00 0.72104627195E+00 0.73470650708E+00 0.77557287090E+00 0.84320719672E+00
 0.93671355577E+00 0.10544725564E+01 0.11939605598E+01 0.13515172275E+01 0.15223434068E+01
 0.17004313923E+01 0.18787142237E+01 0.20495302241E+01 0.22045325631E+01 0.23355346432E+01
 0.24352047048E+01 0.24976196154E+01 0.25188766756E+01 0.24976196154E+01 0.24352047048E+01
 0.23355346432E+01 0.22045325631E+01 0.20495302241E+01 0.18787142237E+01 0.17004313923E+01
 0.15223434068E+01 0.13515172275E+01 0.11939605598E+01 0.10544725564E+01 0.93671355577E+00
 0.84320719672E+00 0.77557287090E+00 0.73470650708E+00 0.64995691907E+00 0.66165939689E+00
 0.69665650354E+00 0.75458123474E+00 0.83462556771E+00 0.93535795139E+00 0.10544936611E+01
 0.11888029455E+01 0.13340184868E+01 0.14849670059E+01 0.16356663407E+01 0.17794806168E+01
 0.19096764363E+01 0.20195741831E+01 0.21030740737E+01 0.21552887648E+01 0.21730610630E+01
 0.21552887648E+01 0.21030740737E+01 0.20195741831E+01 0.19096764363E+01 0.17794806168E+01
 0.16356663407E+01 0.14849670059E+01 0.13340184868E+01 0.11888029455E+01 0.10544936611E+01
 0.93535795139E+00 0.83462556771E+00 0.75458123474E+00 0.69665650354E+00 0.66165939689E+00
 0.58108431155E+00 0.59097186422E+00 0.62055014353E+00 0.66949322928E+00 0.73710575535E+00
 0.82211439399E+00 0.92252324468E+00 0.10354859485E+01 0.11573393458E+01 0.12836405096E+01
 0.14093529697E+01 0.15290779810E+01 0.16371561088E+01 0.17281506165E+01 0.17971855833E+01
 0.18403324973E+01 0.18550110636E+01 0.18403324973E+01 0.17971855833E+01 0.17281506165E+01
 0.16371561088E+01 0.15290779810E+01 0.14093529697E+01 0.12836405096E+01 0.11573393458E+01
 0.10354859485E+01 0.92252324468E+00 0.82211439399E+00 0.73710575535E+00 0.66949322928E+00
 0.62055014353E+00 0.59097186422E+00 0.51567535135E+00 0.52393663196E+00 0.54863993135E+00
 0.58950813662E+00 0.64592509201E+00 0.71678908223E+00 0.80035655806E+00 0.89419530672E+00
 0.99517260645E+00 0.10995833727E+01 0.12032602075E+01 0.13017233627E+01 0.13904744322E+01
 0.14651123027E+01 0.15216722752E+01 0.15569810046E+01 0.15689894719E+01 0.15569810046E+01
 0.15216722752E+01 0.14651123027E+01 0.13904744322E+01 0.13017233627E+01 0.12032602075E+01
 0.10995833727E+01 0.99517260645E+00 0.89419530672E+00 0.80035655806E+00 0.71678908223E+00
 0.64592509201E+00 0.58950813662E+00 0.54863993135E+00 0.52393663196E+00 0.45465375381E+00
 0.46149034084E+00 0.48193154608E+00 0.51572094105E+00 0.56231753831E+00 0.62075272252E+00
 0.68953702047E+00 0.76659915173E+00 0.84933787105E+00 0.93468378877E+00 0.10192410518E+01
 0.10994359954E+01 0.11715860359E+01 0.12321823865E+01 0.12780693206E+01 0.13067150558E+01
 0.13164563540E+01 0.13067150558E+01 0.12780693206E+01 0.12321823865E+01 0.11715860359E+01
 0.10994359954E+01 0.10192410518E+01 0.93468378877E+00 0.84933787105E+00 0.76659915173E+00
 0.68953702047E+00 0.62075272252E+00 0.56231753831E+00 0.51572094105E+00 0.48193154608E+00
 0.46149034084E+00 0.39862487391E+00 0.40424990362E+00 0.42105324126E+00 0.44879537565E+00
 0.48697802207E+00 0.53475412805E+00 0.59084199874E+00 0.65351659448E+00 0.72062768302E+00
 0.78969917531E+00 0.85800812557E+00 0.92267018902E+00 0.98081203293E+00 0.10296246728E+01
 0.10665750417E+01 0.10896323427E+01 0.10974721636E+01 0.10896323427E+01 0.10665750417E+01
 0.10296246728E+01 0.98081203293E+00 0.92267018902E+00 0.85800812557E+00 0.78969917531E+00
 0.72062768302E+00 0.65351659448E+00 0.59084199874E+00 0.53475412805E+00 0.48697802207E+00
 0.44879537565E+00 0.42105324126E+00 0.40424990362E+00 0.34794323412E+00 0.35255715115E+00
 0.36632807942E+00 0.38901390561E+00 0.42015057652E+00 0.45897765799E+00 0.50440279958E+00
 0.55498550582E+00 0.60898945498E+00 0.66442670664E+00 0.71914191206E+00 0.77089220233E+00
 0.81736845664E+00 0.85636310810E+00 0.88588229905E+00 0.90430659255E+00 0.91057137519E+00
 0.90430659255E+00 0.88588229905E+00 0.85636310810E+00 0.81736845664E+00 0.77089220233E+00
 0.71914191206E+00 0.66442670664E+00 0.60898945498E+00 0.55498550582E+00 0.50440279958E+00
 0.45897765799E+00 0.42015057652E+00 0.38901390561E+00 0.36632807942E+00 0.35255715115E+00
 0.30277893508E+00 0.30656623302E+00 0.31784956694E+00 0.33638563527E+00 0.36172600923E+00
 0.39318804306E+00 0.42982753299E+00 0.47045859702E+00 0.51367473452E+00 0.55791240641E+00
 0.60148539262E+00 0.64261858218E+00 0.67954547843E+00 0.71052401316E+00 0.73396841609E+00
 0.74859719090E+00 0.75357162542E+00 0.74859719090E+00 0.73396841609E+00 0.71052401316E+00
 0.67954547843E+00 0.64261858218E+00 0.60148539262E+00 0.55791240641E+00 0.51367473452E+00
 0.47045859702E+00 0.42982753299E+00 0.39318804306E+00 0.36172600923E+00 0.33638563527E+00
 0.31784956694E+00 0.30656623302E+00 0.26319769129E+00 0.26631277347E+00 0.27557845050E+00
 0.29074473312E+00 0.31138376265E+00 0.33687246503E+00 0.36640170850E+00 0.39898482458E+00
 0.43350019561E+00 0.46870951643E+00 0.50329761781E+00 0.53590735380E+00 0.56513155753E+00
 0.58962050458E+00 0.60814691629E+00 0.61970717663E+00 0.62363751122E+00 0.61970717663E+00
 0.60814691629E+00 0.58962050458E+00 0.56513155753E+00 0.53590735380E+00 0.50329761781E+00
 0.46870951643E+00 0.43350019561E+00 0.39898482458E+00 0.36640170850E+00 0.33687246503E+00
 0.31138376265E+00 0.29074473312E+00 0.27557845050E+00 0.26631277347E+00 0.22920389961E+00
 0.23177531269E+00 0.23940625846E+00 0.25185245483E+00 0.26870596747E+00 0.28940876003E+00
 0.31326070532E+00 0.33945042367E+00 0.36706870999E+00 0.39514372541E+00 0.42264712896E+00
 0.44850098415E+00 0.47163991595E+00 0.49100696929E+00 0.50563879179E+00 0.51475804008E+00
 0.51785730421E+00 0.51475804008E+00 0.50563879179E+00 0.49100696929E+00 0.47163991595E+00
 0.44850098415E+00 0.42264712896E+00 0.39514372541E+00 0.36706870999E+00 0.33945042367E+00
 0.31326070532E+00 0.28940876003E+00 0.26870596747E+00 0.25185245483E+00 0.23940625846E+00
 0.23177531269E+00 0.20076552617E+00 0.20289409861E+00 0.20920185767E+00 0.21945479500E+00
 0.23328069388E+00 0.25018228881E+00 0.26956556699E+00 0.29075333527E+00 0.31301446098E+00
 0.33556478013E+00 0.35758585049E+00 0.37824334792E+00 0.39667142152E+00 0.41205198868E+00
 0.42365014556E+00 0.43087066169E+00 0.43332244316E+00 0.43087066169E+00 0.42365014556E+00
 0.41205198868E+00 0.39667142152E+00 0.37824334792E+00 0.35758585049E+00 0.33556478013E+00
 0.31301446098E+00 0.29075333527E+00 0.26956556699E+00 0.25018228881E+00 0.23328069388E+00
 0.21945479500E+00 0.20920185767E+00 0.20289409861E+00 0.17780653719E+00 0.17957813813E+00
 0.18481935521E+00 0.19332059218E+00 0.20474916814E+00 0.21867764918E+00 0.23460034187E+00
 0.25195952850E+00 0.27014822274E+00 0.28853003266E+00 0.30643699555E+00 0.32317291744E+00
 0.33806689690E+00 0.35046395328E+00 0.35978282664E+00 0.36556824913E+00 0.36753045714E+00
 0.36556824913E+00 0.35978282664E+00 0.35046395328E+00 0.33806689690E+00 0.32317291744E+00
 0.30643699555E+00 0.28853003267E+00 0.27014822274E+00 0.25195952850E+00 0.23460034187E+00
 0.21867764918E+00 0.20474916814E+00 0.19332059218E+00 0.18481935521E+00 0.17957813813E+00
 0.16020704700E+00 0.16169698330E+00 0.16610426220E+00 0.17324406493E+00 0.18283220280E+00
 0.19450284700E+00 0.20783458442E+00 0.22235643286E+00 0.23756457773E+00 0.25291538193E+00
 0.26784048657E+00 0.28176747838E+00 0.29411063659E+00 0.30434116325E+00 0.31200617281E+00
 0.31675429545E+00 0.31836201542E+00 0.31675429545E+00 0.31200617281E+00 0.30434116325E+00
 0.29411063659E+00 0.28176747838E+00 0.26784048657E+00 0.25291538193E+00 0.23756457773E+00
 0.22235643286E+00 0.20783458442E+00 0.19450284700E+00 0.18283220280E+00 0.17324406493E+00
 0.16610426220E+00 0.16169698330E+00 0.14780928228E+00 0.14909439707E+00 0.15289385262E+00
 0.15905085970E+00 0.16732038155E+00 0.17739425575E+00 0.18891149421E+00 0.20147399620E+00
 0.21463975313E+00 0.22793590827E+00 0.24085831923E+00 0.25288194781E+00 0.26351852930E+00
 0.27230976022E+00 0.27887157309E+00 0.28292194952E+00 0.28429137724E+00 0.28292194952E+00
 0.27887157309E+00 0.27230976022E+00 0.26351852930E+00 0.25288194781E+00 0.24085831923E+00
 0.22793590827E+00 0.21463975313E+00 0.20147399620E+00 0.18891149421E+00 0.17739425575E+00
 0.16732038155E+00 0.15905085970E+00 0.15289385262E+00 0.14909439707E+00 0.14045330617E+00
 0.14161194005E+00 0.14504035056E+00 0.15059803976E+00 0.15807125702E+00 0.16718592076E+00
 0.17762617306E+00 0.18903201103E+00 0.20100770832E+00 0.21311155676E+00 0.22487270059E+00
 0.23581823467E+00 0.24547225697E+00 0.25342560059E+00 0.25934813457E+00 0.26299868398E+00
 0.26423122995E+00 0.26299868398E+00 0.25934813457E+00 0.25342560059E+00 0.24547225697E+00
 0.23581823467E+00 0.22487270059E+00 0.21311155676E+00 0.20100770832E+00 0.18903201103E+00
 0.17762617306E+00 0.16718592076E+00 0.15807125702E+00 0.15059803976E+00 0.14504035056E+00
 0.14161194005E+00 0.15152891709E+00 0.15282699359E+00 0.15666761886E+00 0.16289209621E+00
 0.17125932744E+00 0.18146110639E+00 0.19314441741E+00 0.20590929003E+00 0.21931826162E+00
 0.23288251881E+00 0.24607965459E+00 0.25838084947E+00 0.26924846467E+00 0.27821613604E+00
 0.28490352133E+00 0.28902981607E+00 0.29042372198E+00 0.28902981607E+00 0.28490352133E+00
 0.27821613604E+00 0.26924846467E+00 0.25838084947E+00 0.24607965459E+00 0.23288251881E+00
 0.21931826162E+00 0.20590929003E+00 0.19314441741E+00 0.18146110639E+00 0.17125932744E+00
 0.16289209621E+00 0.15666761886E+00 0.15282699359E+00 0.15432896989E+00 0.15567721029E+00
 0.15966348276E+00 0.16612438338E+00 0.17480483866E+00 0.18538550408E+00 0.19749303140E+00
 0.21071593855E+00 0.22459398874E+00 0.23863083577E+00 0.25229103634E+00 0.26501287312E+00
 0.27627368336E+00 0.28558207631E+00 0.29252832694E+00 0.29681450055E+00 0.29826335413E+00
 0.29681450055E+00 0.29252832694E+00 0.28558207631E+00 0.27627368336E+00 0.26501287312E+00
 0.25229103634E+00 0.23863083577E+00 0.22459398874E+00 0.21071593855E+00 0.19749303140E+00
 0.18538550408E+00 0.17480483866E+00 0.16612438338E+00 0.15966348276E+00 0.15567721029E+00
 0.16277869660E+00 0.16427340456E+00 0.16869482493E+00 0.17585754103E+00 0.18547817319E+00
 0.19719362578E+00 0.21058784671E+00 0.22519477987E+00 0.24051302739E+00 0.25599419112E+00
 0.27105958346E+00 0.28512312835E+00 0.29758338438E+00 0.30790316958E+00 0.31562796883E+00
 0.32040919513E+00 0.32202725727E+00 0.32040919513E+00 0.31562796883E+00 0.30790316958E+00
 0.29758338438E+00 0.28512312835E+00 0.27105958346E+00 0.25599419112E+00 0.24051302739E+00
 0.22519477987E+00 0.21058784671E+00 0.19719362578E+00 0.18547817319E+00 0.17585754103E+00