   2   2   0   0
  0.1200000E+02  0.2000000E-09  0.3000000E-09  0.4000000E-09  0.5000000E-15
   1.0000000000000000E-004
  CAR 
 unknown system                          
     23.38595420    -26.00589654  301      1.43387300      1.00000000
    -26.006  0.0000E+00  0.0000E+00  0.0000E+00  0.0000E+00
    -25.841  0.0000E+00  0.0000E+00  0.0000E+00  0.0000E+00
    -25.677  0.0000E+00  0.0000E+00  0.0000E+00  0.0000E+00
    -25.512  0.0000E+00  0.0000E+00  0.0000E+00  0.0000E+00
    -25.347  0.0000E+00  0.0000E+00  0.0000E+00  0.0000E+00
    -25.183  0.0000E+00  0.0000E+00  0.0000E+00  0.0000E+00
    -25.018  0.0000E+00  0.0000E+00  0.0000E+00  0.0000E+00
    -24.853  0.0000E+00  0.0000E+00  0.0000E+00  0.0000E+00
    -24.689 -0.6357E-39  0.0000E+00 -0.1047E-39  0.0000E+00
    -24.524 -0.6479E-27  0.0000E+00 -0.1067E-27  0.0000E+00
    -24.360 -0.2784E-17  0.0000E+00 -0.4584E-18  0.0000E+00
    -24.195 -0.4637E-10 -0.6117E-40 -0.7635E-11 -0.1007E-40
    -24.030 -0.2830E-05 -0.9468E-28 -0.4659E-06 -0.1559E-28
    -23.866 -0.1757E-03 -0.6189E-18 -0.2940E-04 -0.1019E-18
    -23.701  0.5763E-02 -0.1578E-10  0.9194E-03 -0.2597E-11
    -23.536  0.5097E-03 -0.1497E-05  0.1003E-02 -0.2464E-06
    -23.372 -0.2034E-04 -0.2113E-03  0.1000E-02 -0.3503E-04
    -23.207 -0.1654E-08  0.5404E-02  0.1000E-02  0.8547E-03
    -23.042 -0.4410E-15  0.9148E-03  0.1000E-02  0.1005E-02
    -22.878  0.0000E+00 -0.3243E-04  0.1000E-02  0.1000E-02
    -22.713  0.0000E+00 -0.4180E-08  0.1000E-02  0.1000E-02
    -22.548  0.0000E+00 -0.1709E-14  0.1000E-02  0.1000E-02
    -22.384  0.0000E+00  0.0000E+00  0.1000E-02  0.1000E-02
    -22.219  0.0000E+00  0.0000E+00  0.1000E-02  0.1000E-02
    -22.055  0.0000E+00  0.0000E+00  0.1000E-02  0.1000E-02
    -21.890  0.0000E+00  0.0000E+00  0.1000E-02  0.1000E-02
    -21.725  0.0000E+00  0.0000E+00  0.1000E-02  0.1000E-02
    -21.561  0.0000E+00  0.0000E+00  0.1000E-02  0.1000E-02
    -21.396  0.0000E+00  0.0000E+00  0.1000E-02  0.1000E-02
    -21.231  0.0000E+00  0.0000E+00  0.1000E-02  0.1000E-02
    -21.067  0.0000E+00  0.0000E+00  0.1000E-02  0.1000E-02
    -20.902  0.0000E+00  0.0000E+00  0.1000E-02  0.1000E-02
    -20.737  0.0000E+00  0.0000E+00  0.1000E-02  0.1000E-02
    -20.573  0.0000E+00  0.0000E+00  0.1000E-02  0.1000E-02
    -20.408  0.0000E+00  0.0000E+00  0.1000E-02  0.1000E-02
    -20.244  0.0000E+00  0.0000E+00  0.1000E-02  0.1000E-02
    -20.079  0.0000E+00  0.0000E+00  0.1000E-02  0.1000E-02
    -19.914  0.0000E+00  0.0000E+00  0.1000E-02  0.1000E-02
    -19.750  0.0000E+00  0.0000E+00  0.1000E-02  0.1000E-02
    -19.585  0.0000E+00  0.0000E+00  0.1000E-02  0.1000E-02
    -19.420  0.0000E+00  0.0000E+00  0.1000E-02  0.1000E-02
    -19.256  0.0000E+00  0.0000E+00  0.1000E-02  0.1000E-02
    -19.091  0.0000E+00  0.0000E+00  0.1000E-02  0.1000E-02
    -18.926  0.0000E+00  0.0000E+00  0.1000E-02  0.1000E-02
    -18.762  0.0000E+00  0.0000E+00  0.1000E-02  0.1000E-02
    -18.597  0.0000E+00  0.0000E+00  0.1000E-02  0.1000E-02
    -18.432  0.0000E+00  0.0000E+00  0.1000E-02  0.1000E-02
    -18.268  0.0000E+00  0.0000E+00  0.1000E-02  0.1000E-02
    -18.103  0.0000E+00  0.0000E+00  0.1000E-02  0.1000E-02
    -17.939  0.0000E+00  0.0000E+00  0.1000E-02  0.1000E-02
    -17.774  0.0000E+00  0.0000E+00  0.1000E-02  0.1000E-02
    -17.609  0.0000E+00  0.0000E+00  0.1000E-02  0.1000E-02
    -17.445  0.0000E+00  0.0000E+00  0.1000E-02  0.1000E-02
    -17.280  0.0000E+00  0.0000E+00  0.1000E-02  0.1000E-02
    -17.115  0.0000E+00  0.0000E+00  0.1000E-02  0.1000E-02
    -16.951  0.0000E+00  0.0000E+00  0.1000E-02  0.1000E-02
    -16.786  0.0000E+00  0.0000E+00  0.1000E-02  0.1000E-02
    -16.621  0.0000E+00  0.0000E+00  0.1000E-02  0.1000E-02
    -16.457  0.0000E+00  0.0000E+00  0.1000E-02  0.1000E-02
    -16.292  0.0000E+00  0.0000E+00  0.1000E-02  0.1000E-02
    -16.128  0.0000E+00  0.0000E+00  0.1000E-02  0.1000E-02
    -15.963  0.0000E+00  0.0000E+00  0.1000E-02  0.1000E-02
    -15.798  0.0000E+00  0.0000E+00  0.1000E-02  0.1000E-02
    -15.634  0.0000E+00  0.0000E+00  0.1000E-02  0.1000E-02
    -15.469  0.0000E+00  0.0000E+00  0.1000E-02  0.1000E-02
    -15.304  0.0000E+00  0.0000E+00  0.1000E-02  0.1000E-02
    -15.140  0.0000E+00  0.0000E+00  0.1000E-02  0.1000E-02
    -14.975  0.0000E+00  0.0000E+00  0.1000E-02  0.1000E-02
    -14.810  0.0000E+00  0.0000E+00  0.1000E-02  0.1000E-02
    -14.646  0.0000E+00  0.0000E+00  0.1000E-02  0.1000E-02
    -14.481  0.0000E+00  0.0000E+00  0.1000E-02  0.1000E-02
    -14.316  0.0000E+00  0.0000E+00  0.1000E-02  0.1000E-02
    -14.152  0.0000E+00  0.0000E+00  0.1000E-02  0.1000E-02
    -13.987  0.0000E+00  0.0000E+00  0.1000E-02  0.1000E-02
    -13.823  0.0000E+00  0.0000E+00  0.1000E-02  0.1000E-02
    -13.658  0.0000E+00  0.0000E+00  0.1000E-02  0.1000E-02
    -13.493  0.0000E+00  0.0000E+00  0.1000E-02  0.1000E-02
    -13.329  0.0000E+00  0.0000E+00  0.1000E-02  0.1000E-02
    -13.164  0.0000E+00  0.0000E+00  0.1000E-02  0.1000E-02
    -12.999  0.0000E+00  0.0000E+00  0.1000E-02  0.1000E-02
    -12.835  0.0000E+00  0.0000E+00  0.1000E-02  0.1000E-02
    -12.670  0.0000E+00  0.0000E+00  0.1000E-02  0.1000E-02
    -12.505  0.0000E+00  0.0000E+00  0.1000E-02  0.1000E-02
    -12.341  0.0000E+00  0.0000E+00  0.1000E-02  0.1000E-02
    -12.176  0.0000E+00  0.0000E+00  0.1000E-02  0.1000E-02
    -12.012  0.0000E+00  0.0000E+00  0.1000E-02  0.1000E-02
    -11.847  0.0000E+00  0.0000E+00  0.1000E-02  0.1000E-02
    -11.682 -0.3045E-32  0.0000E+00  0.1000E-02  0.1000E-02
    -11.518 -0.1698E-21  0.0000E+00  0.1000E-02  0.1000E-02
    -11.353 -0.3793E-13  0.0000E+00  0.1000E-02  0.1000E-02
    -11.188 -0.3333E-07  0.0000E+00  0.1000E-02  0.1000E-02
    -11.024 -0.8333E-04  0.0000E+00  0.9863E-03  0.1000E-02
    -10.859  0.2249E-02 -0.5002E-33  0.1357E-02  0.1000E-02
    -10.694  0.4083E-02 -0.3988E-22  0.2029E-02  0.1000E-02
    -10.530 -0.1746E-03 -0.1277E-13  0.2000E-02  0.1000E-02
    -10.365 -0.2846E-06 -0.1620E-07  0.2000E-02  0.1000E-02
    -10.201 -0.1058E-11 -0.6117E-04  0.2000E-02  0.9899E-03
    -10.036  0.0000E+00  0.1720E-02  0.2000E-02  0.1273E-02
     -9.871  0.0000E+00  0.4615E-02  0.2000E-02  0.2033E-02
     -9.707  0.0000E+00 -0.1994E-03  0.2000E-02  0.2000E-02
     -9.542  0.0000E+00 -0.5274E-06  0.2000E-02  0.2000E-02
     -9.377  0.0000E+00 -0.2842E-11  0.2000E-02  0.2000E-02
     -9.213  0.0000E+00  0.0000E+00  0.2000E-02  0.2000E-02
     -9.048  0.0000E+00  0.0000E+00  0.2000E-02  0.2000E-02
     -8.883  0.0000E+00  0.0000E+00  0.2000E-02  0.2000E-02
     -8.719  0.0000E+00  0.0000E+00  0.2000E-02  0.2000E-02
     -8.554  0.0000E+00  0.0000E+00  0.2000E-02  0.2000E-02
     -8.389  0.0000E+00  0.0000E+00  0.2000E-02  0.2000E-02
     -8.225  0.0000E+00  0.0000E+00  0.2000E-02  0.2000E-02
     -8.060  0.0000E+00  0.0000E+00  0.2000E-02  0.2000E-02
     -7.896  0.0000E+00  0.0000E+00  0.2000E-02  0.2000E-02
     -7.731  0.0000E+00  0.0000E+00  0.2000E-02  0.2000E-02
     -7.566 -0.1285E-31  0.0000E+00  0.2000E-02  0.2000E-02
     -7.402 -0.5375E-21  0.0000E+00  0.2000E-02  0.2000E-02
     -7.237 -0.8971E-13 -0.3463E-34  0.2000E-02  0.2000E-02
     -7.072 -0.5858E-07 -0.4642E-23  0.2000E-02  0.2000E-02
     -6.908 -0.1043E-03 -0.2512E-14  0.1983E-02  0.2000E-02
     -6.743  0.2703E-02 -0.5430E-08  0.2428E-02  0.2000E-02
     -6.578  0.3626E-02 -0.3683E-04  0.3025E-02  0.1994E-02
     -6.414 -0.1509E-03  0.1050E-02  0.3000E-02  0.2167E-02
     -6.249 -0.1699E-06  0.5275E-02  0.3000E-02  0.3035E-02
     -6.085 -0.2583E-10 -0.2139E-03  0.3000E-02  0.3000E-02
     -5.920 -0.1985E-05 -0.1237E-05  0.3000E-02  0.3000E-02
     -5.755 -0.2013E-03 -0.1148E-10  0.2967E-02  0.3000E-02
     -5.591  0.5578E-02  0.0000E+00  0.3885E-02  0.3000E-02
     -5.426  0.7255E-03  0.0000E+00  0.4004E-02  0.3000E-02
     -5.261 -0.2658E-04 -0.6055E-38  0.4000E-02  0.3000E-02
     -5.097 -0.2800E-08 -0.4105E-26  0.4000E-02  0.3000E-02
     -4.932 -0.9495E-15 -0.1138E-16  0.4000E-02  0.3000E-02
     -4.767 -0.4517E-30 -0.1287E-09  0.4000E-02  0.3000E-02
     -4.603 -0.9140E-20 -0.5089E-05  0.4000E-02  0.2999E-02
     -4.438 -0.7321E-12 -0.8874E-04  0.4000E-02  0.2985E-02
     -4.273 -0.2257E-06  0.5969E-02  0.4000E-02  0.3967E-02
     -4.109 -0.1641E-03  0.2116E-03  0.3973E-02  0.4002E-02
     -3.944  0.3878E-02 -0.1242E-04  0.4611E-02  0.4000E-02
     -3.780  0.2453E-02 -0.2972E-05  0.5015E-02  0.4000E-02
     -3.615 -0.9252E-04 -0.1708E-03  0.5000E-02  0.3971E-02
     -3.450 -0.4313E-07  0.5785E-02  0.5000E-02  0.4924E-02
     -3.286 -0.5615E-13  0.4820E-03  0.5000E-02  0.5003E-02
     -3.121  0.0000E+00 -0.1957E-04  0.5000E-02  0.5000E-02
     -2.956  0.0000E+00 -0.1535E-08  0.5000E-02  0.5000E-02
     -2.792  0.0000E+00 -0.3952E-15  0.5000E-02  0.5000E-02
     -2.627  0.0000E+00  0.0000E+00  0.5000E-02  0.5000E-02
     -2.462  0.0000E+00  0.0000E+00  0.5000E-02  0.5000E-02
     -2.298  0.0000E+00  0.0000E+00  0.5000E-02  0.5000E-02
     -2.133  0.0000E+00  0.0000E+00  0.5000E-02  0.5000E-02
     -1.969  0.0000E+00  0.0000E+00  0.5000E-02  0.5000E-02
     -1.804  0.0000E+00  0.0000E+00  0.5000E-02  0.5000E-02
     -1.639  0.0000E+00  0.0000E+00  0.5000E-02  0.5000E-02
     -1.475  0.0000E+00  0.0000E+00  0.5000E-02  0.5000E-02
     -1.310  0.0000E+00  0.0000E+00  0.5000E-02  0.5000E-02
     -1.145  0.0000E+00  0.0000E+00  0.5000E-02  0.5000E-02
     -0.981  0.0000E+00  0.0000E+00  0.5000E-02  0.5000E-02
     -0.816  0.0000E+00  0.0000E+00  0.5000E-02  0.5000E-02
     -0.651  0.0000E+00  0.0000E+00  0.5000E-02  0.5000E-02
     -0.487  0.0000E+00  0.0000E+00  0.5000E-02  0.5000E-02
     -0.322  0.0000E+00  0.0000E+00  0.5000E-02  0.5000E-02
     -0.157  0.0000E+00  0.0000E+00  0.5000E-02  0.5000E-02
      0.007  0.0000E+00  0.0000E+00  0.5000E-02  0.5000E-02
      0.172  0.0000E+00  0.0000E+00  0.5000E-02  0.5000E-02
      0.336  0.0000E+00  0.0000E+00  0.5000E-02  0.5000E-02
      0.501 -0.7700E-33  0.0000E+00  0.5000E-02  0.5000E-02
      0.666 -0.5640E-22  0.0000E+00  0.5000E-02  0.5000E-02
      0.830 -0.1658E-13  0.0000E+00  0.5000E-02  0.5000E-02
      0.995 -0.1928E-07  0.0000E+00  0.5000E-02  0.5000E-02
      1.160 -0.6603E-04  0.0000E+00  0.4989E-02  0.5000E-02
      1.324  0.1842E-02  0.0000E+00  0.5292E-02  0.5000E-02
      1.489  0.4493E-02  0.0000E+00  0.6032E-02  0.5000E-02
      1.654 -0.1942E-03  0.0000E+00  0.6000E-02  0.5000E-02
      1.818 -0.4565E-06  0.0000E+00  0.6000E-02  0.5000E-02
      1.983 -0.1423E-07 -0.1286E-37  0.6000E-02  0.5000E-02
      2.147 -0.5771E-04 -0.7599E-26  0.5990E-02  0.5000E-02
      2.312  0.1632E-02 -0.1821E-16  0.6259E-02  0.5000E-02
      2.477  0.4703E-02 -0.1803E-09  0.7034E-02  0.5000E-02
      2.641 -0.2029E-03 -0.6155E-05  0.7000E-02  0.4999E-02
      2.806 -0.5867E-06 -0.4478E-04  0.7000E-02  0.4992E-02
      2.971 -0.3378E-11  0.6003E-02  0.7000E-02  0.5980E-02
      3.135  0.0000E+00 -0.8039E-04  0.7000E-02  0.5967E-02
      3.300  0.0000E+00  0.5007E-02  0.7000E-02  0.6791E-02
      3.465  0.0000E+00  0.1315E-02  0.7000E-02  0.7008E-02
      3.629  0.0000E+00 -0.4594E-04  0.7000E-02  0.7000E-02
      3.794  0.0000E+00 -0.8649E-08  0.7000E-02  0.7000E-02
      3.958  0.0000E+00 -0.5004E-14  0.7000E-02  0.7000E-02
      4.123  0.0000E+00  0.0000E+00  0.7000E-02  0.7000E-02
      4.288  0.0000E+00  0.0000E+00  0.7000E-02  0.7000E-02
      4.452  0.0000E+00  0.0000E+00  0.7000E-02  0.7000E-02
      4.617  0.0000E+00  0.0000E+00  0.7000E-02  0.7000E-02
      4.782  0.0000E+00  0.0000E+00  0.7000E-02  0.7000E-02
      4.946  0.0000E+00  0.0000E+00  0.7000E-02  0.7000E-02
      5.111  0.0000E+00  0.0000E+00  0.7000E-02  0.7000E-02
      5.276  0.0000E+00  0.0000E+00  0.7000E-02  0.7000E-02
      5.440  0.0000E+00  0.0000E+00  0.7000E-02  0.7000E-02
      5.605  0.0000E+00  0.0000E+00  0.7000E-02  0.7000E-02
      5.770  0.0000E+00  0.0000E+00  0.7000E-02  0.7000E-02
      5.934  0.0000E+00  0.0000E+00  0.7000E-02  0.7000E-02
      6.099  0.0000E+00  0.0000E+00  0.7000E-02  0.7000E-02
      6.263  0.0000E+00  0.0000E+00  0.7000E-02  0.7000E-02
      6.428  0.0000E+00  0.0000E+00  0.7000E-02  0.7000E-02
      6.593  0.0000E+00  0.0000E+00  0.7000E-02  0.7000E-02
      6.757  0.0000E+00  0.0000E+00  0.7000E-02  0.7000E-02
      6.922  0.0000E+00  0.0000E+00  0.7000E-02  0.7000E-02
      7.087  0.0000E+00  0.0000E+00  0.7000E-02  0.7000E-02
      7.251  0.0000E+00  0.0000E+00  0.7000E-02  0.7000E-02
      7.416  0.0000E+00  0.0000E+00  0.7000E-02  0.7000E-02
      7.581  0.0000E+00  0.0000E+00  0.7000E-02  0.7000E-02
      7.745  0.0000E+00  0.0000E+00  0.7000E-02  0.7000E-02
      7.910  0.0000E+00  0.0000E+00  0.7000E-02  0.7000E-02
      8.074  0.0000E+00  0.0000E+00  0.7000E-02  0.7000E-02
      8.239  0.0000E+00  0.0000E+00  0.7000E-02  0.7000E-02
      8.404  0.0000E+00  0.0000E+00  0.7000E-02  0.7000E-02
      8.568  0.0000E+00  0.0000E+00  0.7000E-02  0.7000E-02
      8.733  0.0000E+00  0.0000E+00  0.7000E-02  0.7000E-02
      8.898  0.0000E+00  0.0000E+00  0.7000E-02  0.7000E-02
      9.062  0.0000E+00  0.0000E+00  0.7000E-02  0.7000E-02
      9.227  0.0000E+00  0.0000E+00  0.7000E-02  0.7000E-02
      9.392  0.0000E+00  0.0000E+00  0.7000E-02  0.7000E-02
      9.556  0.0000E+00  0.0000E+00  0.7000E-02  0.7000E-02
      9.721  0.0000E+00  0.0000E+00  0.7000E-02  0.7000E-02
      9.886  0.0000E+00  0.0000E+00  0.7000E-02  0.7000E-02
     10.050  0.0000E+00  0.0000E+00  0.7000E-02  0.7000E-02
     10.215  0.0000E+00  0.0000E+00  0.7000E-02  0.7000E-02
     10.379  0.0000E+00  0.0000E+00  0.7000E-02  0.7000E-02
     10.544  0.0000E+00  0.0000E+00  0.7000E-02  0.7000E-02
     10.709 -0.1705E-31  0.0000E+00  0.7000E-02  0.7000E-02
     10.873 -0.6734E-21  0.0000E+00  0.7000E-02  0.7000E-02
     11.038 -0.1061E-12  0.0000E+00  0.7000E-02  0.7000E-02
     11.203 -0.6535E-07 -0.9523E-34  0.7000E-02  0.7000E-02
     11.367 -0.1087E-03 -0.1050E-22  0.6982E-02  0.7000E-02
     11.532  0.2795E-02 -0.4662E-14  0.7442E-02  0.7000E-02
     11.697  0.3534E-02 -0.8248E-08  0.8024E-02  0.7000E-02
     11.861 -0.1461E-03 -0.4493E-04  0.8000E-02  0.6993E-02
     12.026 -0.1532E-06  0.1287E-02  0.8000E-02  0.7204E-02
     12.190 -0.3979E-12  0.5046E-02  0.8000E-02  0.8035E-02
     12.355 -0.1174E-15 -0.2127E-03  0.8000E-02  0.8000E-02
     12.520 -0.6622E-09 -0.9030E-06  0.8000E-02  0.8000E-02
     12.684 -0.1257E-04 -0.6827E-11  0.7998E-02  0.8000E-02
     12.849  0.2174E-03 -0.2902E-22  0.8034E-02  0.8000E-02
     13.014  0.5966E-02 -0.1005E-13  0.9016E-02  0.8000E-02
     13.178 -0.9145E-04 -0.1381E-07  0.9001E-02  0.8000E-02
     13.343 -0.5022E-05 -0.5695E-04  0.9000E-02  0.7991E-02
     13.508 -0.1257E-09  0.1612E-02  0.9000E-02  0.8256E-02
     13.672 -0.1079E-16  0.4723E-02  0.9000E-02  0.9034E-02
     13.837  0.0000E+00 -0.2036E-03  0.9000E-02  0.9000E-02
     14.002  0.0000E+00 -0.6011E-06  0.9000E-02  0.9000E-02
     14.166  0.0000E+00 -0.3512E-11  0.9000E-02  0.9000E-02
     14.331  0.0000E+00  0.0000E+00  0.9000E-02  0.9000E-02
     14.495  0.0000E+00  0.0000E+00  0.9000E-02  0.9000E-02
     14.660  0.0000E+00  0.0000E+00  0.9000E-02  0.9000E-02
     14.825 -0.3107E-38  0.0000E+00  0.9000E-02  0.9000E-02
     14.989 -0.2378E-26  0.0000E+00  0.9000E-02  0.9000E-02
     15.154 -0.7326E-17 -0.7165E-30  0.9000E-02  0.9000E-02
     15.319 -0.9529E-10 -0.1318E-19  0.9000E-02  0.9000E-02
     15.483 -0.4289E-05 -0.9581E-12  0.8999E-02  0.9000E-02
     15.648 -0.1210E-03 -0.2675E-06  0.8979E-02  0.9000E-02
     15.813  0.5923E-02 -0.1718E-03  0.9955E-02  0.8972E-02
     15.977  0.2904E-03  0.4028E-02  0.1000E-01  0.9635E-02
     16.142 -0.1444E-04  0.2304E-02  0.1000E-01  0.1001E-01
     16.306 -0.8589E-09 -0.8575E-04  0.1000E-01  0.1000E-01
     16.471 -0.1713E-15 -0.3574E-07  0.1000E-01  0.1000E-01
     16.636  0.0000E+00 -0.4217E-13  0.1000E-01  0.1000E-01
     16.800  0.0000E+00  0.0000E+00  0.1000E-01  0.1000E-01
     16.965  0.0000E+00  0.0000E+00  0.1000E-01  0.1000E-01
     17.130  0.0000E+00  0.0000E+00  0.1000E-01  0.1000E-01
     17.294  0.0000E+00  0.0000E+00  0.1000E-01  0.1000E-01
     17.459  0.0000E+00  0.0000E+00  0.1000E-01  0.1000E-01
     17.624  0.0000E+00  0.0000E+00  0.1000E-01  0.1000E-01
     17.788  0.0000E+00  0.0000E+00  0.1000E-01  0.1000E-01
     17.953  0.0000E+00  0.0000E+00  0.1000E-01  0.1000E-01
     18.117  0.0000E+00  0.0000E+00  0.1000E-01  0.1000E-01
     18.282  0.0000E+00  0.0000E+00  0.1000E-01  0.1000E-01
     18.447  0.0000E+00  0.0000E+00  0.1000E-01  0.1000E-01
     18.611  0.0000E+00  0.0000E+00  0.1000E-01  0.1000E-01
     18.776 -0.6678E-36  0.0000E+00  0.1000E-01  0.1000E-01
     18.941 -0.1897E-24  0.0000E+00  0.1000E-01  0.1000E-01
     19.105 -0.2189E-15 -0.2352E-31  0.1000E-01  0.1000E-01
     19.270 -0.1020E-08 -0.8707E-21  0.1000E-01  0.1000E-01
     19.435 -0.1582E-04 -0.1285E-12  0.9997E-02  0.1000E-01
     19.599  0.3431E-03 -0.7399E-07  0.1005E-01  0.1000E-01
     19.764  0.5889E-02 -0.1138E-03  0.1102E-01  0.9981E-02
     19.929 -0.1381E-03  0.2900E-02  0.1100E-01  0.1046E-01
     20.093 -0.4183E-05  0.3429E-02  0.1100E-01  0.1102E-01
     20.258 -0.1809E-03 -0.1407E-03  0.1097E-01  0.1100E-01
     20.422  0.4209E-02 -0.1359E-06  0.1166E-01  0.1100E-01
     20.587  0.2124E-02 -0.3306E-12  0.1201E-01  0.1100E-01
     20.752 -0.7786E-04 -0.1654E-08  0.1200E-01  0.1100E-01
     20.916 -0.2832E-07 -0.2034E-04  0.1200E-01  0.1100E-01
     21.081 -0.2962E-13  0.5097E-03  0.1200E-01  0.1108E-01
     21.246  0.0000E+00  0.5763E-02  0.1200E-01  0.1203E-01
     21.410  0.0000E+00 -0.1757E-03  0.1200E-01  0.1200E-01
     21.575  0.0000E+00 -0.2830E-05  0.1200E-01  0.1200E-01
     21.740  0.0000E+00 -0.4637E-10  0.1200E-01  0.1200E-01
     21.904  0.0000E+00 -0.2697E-17  0.1200E-01  0.1200E-01
     22.069  0.0000E+00  0.0000E+00  0.1200E-01  0.1200E-01
     22.233  0.0000E+00  0.0000E+00  0.1200E-01  0.1200E-01
     22.398  0.0000E+00  0.0000E+00  0.1200E-01  0.1200E-01
     22.563  0.0000E+00  0.0000E+00  0.1200E-01  0.1200E-01
     22.727  0.0000E+00  0.0000E+00  0.1200E-01  0.1200E-01
     22.892  0.0000E+00  0.0000E+00  0.1200E-01  0.1200E-01
     23.057  0.0000E+00  0.0000E+00  0.1200E-01  0.1200E-01
     23.221  0.0000E+00  0.0000E+00  0.1200E-01  0.1200E-01
     23.386  0.0000E+00  0.0000E+00  0.1200E-01  0.1200E-01
