    2    2 1000    2
  0.1200000E+02  0.2000000E-09  0.3000000E-09  0.4000000E-09  0.5000000E-15
   1.0000000000000000E-004
  CAR 
 unknown system                          
     11      1     12

  0.2500000E+00  0.2500000E+00  0.1262379E-14  0.1000000E+01
      1        -23.760812      -23.254293   1.000000   1.000000
      2        -10.841835      -10.007885   1.000000   1.000000
      3         -6.734523       -6.370167   1.000000   1.000000
      4         -5.643369       -4.345649   1.000000   1.000000
      5         -3.957495       -3.511150   1.000000   1.000000
      6          1.349685        2.894340   1.000000  -0.000000
      7          2.341981        3.262878  -0.000000  -0.000000
      8         11.538752       12.063563   0.000000   0.000000
      9         12.920910       13.537900   0.000000   0.000000
     10         15.744028       15.961010   0.000000   0.000000
     11         19.665503       19.933410   0.000000   0.000000
     12         20.402753       21.140870   0.000000   0.000000
