       N       E                     dE             d eps       ncg     rms          rms(c)
DAV:   1     0.814676301969E+02    0.81468E+02   -0.56559E+03    48   0.886E+02
DAV:   2    -0.787058588774E+01   -0.89338E+02   -0.86258E+02    52   0.286E+02
DAV:   3    -0.108425451657E+02   -0.29720E+01   -0.29676E+01    56   0.521E+01
DAV:   4    -0.108610135377E+02   -0.18468E-01   -0.18468E-01    56   0.466E+00
DAV:   5    -0.108612177938E+02   -0.20426E-03   -0.20426E-03    52   0.455E-01    0.642E+01
RMM:   6    -0.109529016932E+02   -0.91684E-01   -0.88342E-01    48   0.894E+00    0.428E+01
RMM:   7    -0.107483138270E+02    0.20459E+00   -0.91411E-01    48   0.922E+00    0.142E+01
RMM:   8    -0.109232316783E+02   -0.17492E+00   -0.47842E-01    48   0.669E+00    0.215E+00
RMM:   9    -0.109295288369E+02   -0.62972E-02   -0.39186E-02    48   0.199E+00    0.824E-01
RMM:  10    -0.109278757672E+02    0.16531E-02   -0.43042E-03    48   0.786E-01    0.285E-01
RMM:  11    -0.109276489848E+02    0.22678E-03   -0.95457E-04    48   0.340E-01    0.148E-01
RMM:  12    -0.109276459920E+02    0.29928E-05   -0.13851E-04    48   0.138E-01    0.743E-02
RMM:  13    -0.109276496788E+02   -0.36868E-05   -0.38581E-05    48   0.695E-02    0.404E-02
RMM:  14    -0.109276513532E+02   -0.16744E-05   -0.64591E-06    48   0.320E-02    0.104E-02
RMM:  15    -0.109276516889E+02   -0.33562E-06   -0.16550E-06    36   0.159E-02
   1 F= -.10927652E+02 E0= -.10928618E+02  d E =-.109277E+02  mag=     1.0000
       N       E                     dE             d eps       ncg     rms          rms(c)
DAV:   1    -0.855769048794E+01    0.23700E+01   -0.27811E+02    48   0.148E+02    0.465E+01
RMM:   2    -0.978589365450E+01   -0.12282E+01   -0.53601E+00    48   0.240E+01    0.302E+01
RMM:   3    -0.108812487435E+02   -0.10954E+01   -0.26652E+00    48   0.165E+01    0.289E+01
RMM:   4    -0.911599454547E+01    0.17653E+01   -0.35322E-01    48   0.716E+00    0.896E+00
RMM:   5    -0.862718726387E+01    0.48881E+00   -0.13741E-01    48   0.360E+00    0.168E+00
RMM:   6    -0.862419127881E+01    0.29960E-02   -0.10486E-02    48   0.109E+00    0.795E-01
RMM:   7    -0.862941073020E+01   -0.52195E-02   -0.31422E-03    48   0.613E-01    0.743E-01
RMM:   8    -0.863843912403E+01   -0.90284E-02   -0.36162E-03    48   0.564E-01    0.813E-01
RMM:   9    -0.864281712511E+01   -0.43780E-02   -0.11867E-03    48   0.338E-01    0.776E-01
RMM:  10    -0.866334777454E+01   -0.20531E-01   -0.46183E-02    59   0.179E+00    0.457E-01
RMM:  11    -0.865894443542E+01    0.44033E-02   -0.57841E-03    51   0.663E-01    0.480E-01
RMM:  12    -0.866328940085E+01   -0.43450E-02   -0.83386E-03    51   0.762E-01    0.116E-01
RMM:  13    -0.866307703298E+01    0.21237E-03   -0.93641E-04    48   0.275E-01    0.126E-01
RMM:  14    -0.866330739330E+01   -0.23036E-03   -0.12256E-04    48   0.107E-01    0.395E-02
RMM:  15    -0.866335213067E+01   -0.44737E-04   -0.58543E-05    48   0.675E-02    0.221E-02
RMM:  16    -0.866335593803E+01   -0.38074E-05   -0.16497E-05    48   0.382E-02    0.930E-03
RMM:  17    -0.866335665733E+01   -0.71931E-06   -0.12925E-06    33   0.140E-02
   2 F= -.86633567E+01 E0= -.86643230E+01  d E =0.226430E+01  mag=     1.0000
       N       E                     dE             d eps       ncg     rms          rms(c)
DAV:   1    -0.989835713956E+01   -0.12350E+01   -0.71325E+01    48   0.761E+01    0.264E+01
RMM:   2    -0.102574452891E+02   -0.35909E+00   -0.24164E+00    48   0.138E+01    0.114E+01
RMM:   3    -0.104255079023E+02   -0.16806E+00   -0.31635E-01    48   0.616E+00    0.764E+00
RMM:   4    -0.103056206071E+02    0.11989E+00   -0.10712E-01    48   0.366E+00    0.320E+00
RMM:   5    -0.102973620322E+02    0.82586E-02   -0.23454E-02    48   0.189E+00    0.159E+00
RMM:   6    -0.103006157851E+02   -0.32538E-02   -0.29322E-03    48   0.680E-01    0.608E-01
RMM:   7    -0.103007133375E+02   -0.97552E-04   -0.51543E-04    48   0.292E-01    0.324E-01
RMM:   8    -0.103007309088E+02   -0.17571E-04   -0.71979E-05    48   0.110E-01    0.109E-01
RMM:   9    -0.103007318857E+02   -0.97686E-06   -0.20151E-05    48   0.555E-02    0.274E-02
RMM:  10    -0.103007324946E+02   -0.60896E-06   -0.61829E-06    47   0.295E-02
   3 F= -.10300732E+02 E0= -.10301699E+02  d E =0.626919E+00  mag=     1.0000
       N       E                     dE             d eps       ncg     rms          rms(c)
DAV:   1    -0.109196058004E+02   -0.61887E+00   -0.20827E+01    48   0.426E+01    0.186E+01
RMM:   2    -0.109831582287E+02   -0.63552E-01   -0.95811E-01    48   0.953E+00    0.105E+01
RMM:   3    -0.110118858637E+02   -0.28728E-01   -0.13781E-01    48   0.412E+00    0.567E+00
RMM:   4    -0.109889413018E+02    0.22945E-01   -0.52674E-02    48   0.258E+00    0.205E+00
RMM:   5    -0.109790241558E+02    0.99171E-02   -0.90863E-03    48   0.121E+00    0.103E+00
RMM:   6    -0.109794115791E+02   -0.38742E-03   -0.80556E-04    48   0.374E-01    0.505E-01
RMM:   7    -0.109794029408E+02    0.86383E-05   -0.14711E-04    48   0.168E-01    0.199E-01
RMM:   8    -0.109794024214E+02    0.51933E-06   -0.24345E-05    48   0.683E-02    0.832E-02
RMM:   9    -0.109794015995E+02    0.82197E-06   -0.67731E-06    48   0.330E-02
   4 F= -.10979402E+02 E0= -.10980368E+02  d E =-.517499E-01  mag=     1.0000
       N       E                     dE             d eps       ncg     rms          rms(c)
DAV:   1    -0.110304464251E+02   -0.51044E-01   -0.12616E+00    48   0.107E+01    0.451E+00
RMM:   2    -0.110333809993E+02   -0.29346E-02   -0.61425E-02    48   0.264E+00    0.291E+00
RMM:   3    -0.110343345692E+02   -0.95357E-03   -0.84997E-03    48   0.103E+00    0.148E+00
RMM:   4    -0.110337720759E+02    0.56249E-03   -0.31344E-03    48   0.627E-01    0.466E-01
RMM:   5    -0.110330687492E+02    0.70333E-03   -0.64049E-04    48   0.313E-01    0.243E-01
RMM:   6    -0.110330693581E+02   -0.60895E-06   -0.51081E-05    48   0.958E-02    0.101E-01
RMM:   7    -0.110330682530E+02    0.11051E-05   -0.90400E-06    48   0.419E-02    0.434E-02
RMM:   8    -0.110330681210E+02    0.13204E-06   -0.14981E-06    36   0.167E-02
   5 F= -.11033068E+02 E0= -.11034034E+02  d E =-.105416E+00  mag=     1.0000
       N       E                     dE             d eps       ncg     rms          rms(c)
DAV:   1    -0.110350027013E+02   -0.19344E-02   -0.71791E-02    48   0.254E+00    0.105E+00
RMM:   2    -0.110351287875E+02   -0.12609E-03   -0.32842E-03    48   0.621E-01    0.686E-01
RMM:   3    -0.110351563234E+02   -0.27536E-04   -0.42526E-04    48   0.230E-01    0.338E-01
RMM:   4    -0.110351480875E+02    0.82359E-05   -0.15797E-04    48   0.140E-01    0.106E-01
RMM:   5    -0.110351073754E+02    0.40712E-04   -0.34252E-05    48   0.720E-02    0.481E-02
RMM:   6    -0.110351073450E+02    0.30332E-07   -0.25627E-06    39   0.216E-02
   6 F= -.11035107E+02 E0= -.11036074E+02  d E =-.107456E+00  mag=     1.0000
       N       E                     dE             d eps       ncg     rms          rms(c)
DAV:   1    -0.110351139328E+02   -0.65574E-05   -0.24702E-04    48   0.150E-01    0.637E-02
RMM:   2    -0.110351143647E+02   -0.43196E-06   -0.10690E-05    44   0.350E-02    0.394E-02
RMM:   3    -0.110351145383E+02   -0.17357E-06   -0.16145E-06    30   0.141E-02
   7 F= -.11035115E+02 E0= -.11036081E+02  d E =-.107463E+00  mag=     1.0000
