 vasp.6.4.3 19Mar24 (build Jun 11 2024 09:57:22) complex                         
 executed on             LinuxGNU date 2024.07.25  11:23:53
 running    4 mpi-ranks, with    1 threads/rank, on    1 nodes
 distrk:  each k-point on    4 cores,    1 groups
 distr:  one band on NCORE=   1 cores,    4 groups


--------------------------------------------------------------------------------------------------------


 INCAR:
   PREC = Accurate
   ENCUT = 600
   ALGO = FAST
   ADDGRID = .TRUE.
   ISMEAR = 1
   SIGMA = 0.10
   ISPIN = 2
   LWAVE = F
   LCHARG = T
   LREAL = Auto
   IBRION = 2
   NSW = 1000
   EDIFF = 1.00e-06
   EDIFFG = -0.01

 POTCAR:    PAW_PBE N_s 07Sep2000                 
 POTCAR:    PAW_PBE O_s 07Sep2000                 
 -----------------------------------------------------------------------------
|                                                                             |
|           W    W    AA    RRRRR   N    N  II  N    N   GGGG   !!!           |
|           W    W   A  A   R    R  NN   N  II  NN   N  G    G  !!!           |
|           W    W  A    A  R    R  N N  N  II  N N  N  G       !!!           |
|           W WW W  AAAAAA  RRRRR   N  N N  II  N  N N  G  GGG   !            |
|           WW  WW  A    A  R   R   N   NN  II  N   NN  G    G                |
|           W    W  A    A  R    R  N    N  II  N    N   GGGG   !!!           |
|                                                                             |
|     You use a magnetic or noncollinear calculation, but did not specify     |
|     the initial magnetic moment with the MAGMOM tag. Note that a            |
|     default of 1 will be used for all atoms. This ferromagnetic setup       |
|     may break the symmetry of the crystal, in particular it may rule        |
|     out finding an antiferromagnetic solution. Thence, we recommend         |
|     setting the initial magnetic moment manually or verifying carefully     |
|     that this magnetic setup is desired.                                    |
|                                                                             |
 -----------------------------------------------------------------------------

 POTCAR:    PAW_PBE N_s 07Sep2000                 
   SHA256 =  6c8253a28bdd4aedec2fa0e2af41be4a1b1a68ded8ac4a6237921e6dbb4872b1 N_s/POTCAR            
   COPYR  = (c) Copyright 07Sep2000 Georg Kresse                                                    
   COPYR  = This file is part of the software VASP. Any use, copying, and all other rights are regul
   COPYR  = If you do not have a valid VASP license, you may not use, copy or distribute this file. 
   VRHFIN =N: s2p3                                                                                  
   LEXCH  = PE                                                                                      
   EATOM  =   264.5486 eV,   19.4438 Ry                                                             
                                                                                                    
   TITEL  = PAW_PBE N_s 07Sep2000                                                                   
   LULTRA =        F    use ultrasoft PP ?                                                          
   IUNSCR =        0    unscreen: 0-lin 1-nonlin 2-no                                               
   RPACOR =    0.000    partial core radius                                                         
   POMASS =   14.001; ZVAL   =    5.000    mass and valenz                                          
   RCORE  =    1.850    outmost cutoff radius                                                       
   RWIGS  =    1.850; RWIGS  =    0.979    wigner-seitz radius (au A)                               
   ENMAX  =  279.692; ENMIN  =  209.769 eV                                                          
   RCLOC  =    0.803    cutoff for local pot                                                        
   LCOR   =        T    correct aug charges                                                         
   LPAW   =        T    paw PP                                                                      
   EAUG   =  384.743                                                                                
   DEXC   =    0.000                                                                                
   RMAX   =    1.893    core radius for proj-oper                                                   
   RAUG   =    1.300    factor for augmentation sphere                                              
   RDEP   =    1.933    radius for radial grids                                                     
   RDEPT  =    1.632    core radius for aug-charge                                                  
                                                                                                    
   Atomic configuration                                                                             
    4 entries                                                                                       
     n  l   j            E        occ.                                                              
     1  0  0.50      -384.7179   2.0000                                                             
     2  0  0.50       -18.5828   2.0000                                                             
     2  1  0.50        -7.0898   3.0000                                                             
     3  2  1.50        -1.3606   0.0000                                                             
   Description                                                                                      
     l       E           TYP  RCUT    TYP  RCUT                                                     
     0    -18.5828119     23  1.500                                                                 
     0    -19.9433945     23  1.500                                                                 
     1     -7.0897853     23  1.850                                                                 
     1     -4.8150613     23  1.850                                                                 
  local pseudopotential read in
  atomic valenz-charges read in
  non local Contribution for L=           0  read in
    real space projection operators read in
  non local Contribution for L=           0  read in
    real space projection operators read in
  non local Contribution for L=           1  read in
    real space projection operators read in
  non local Contribution for L=           1  read in
    real space projection operators read in
    PAW grid and wavefunctions read in

   number of l-projection  operators is LMAX  =           4
   number of lm-projection operators is LMMAX =           8

 POTCAR:    PAW_PBE O_s 07Sep2000                 
   SHA256 =  e7f4e16ee7752e7dead62f07b2b95b8f91122148deae9dd89b96c576b0e91599 O_s/POTCAR            
   COPYR  = (c) Copyright 07Sep2000 Georg Kresse                                                    
   COPYR  = This file is part of the software VASP. Any use, copying, and all other rights are regul
   COPYR  = If you do not have a valid VASP license, you may not use, copy or distribute this file. 
   VRHFIN =O: s2p4                                                                                  
   LEXCH  = PE                                                                                      
   EATOM  =   432.3788 eV,   31.7789 Ry                                                             
                                                                                                    
   TITEL  = PAW_PBE O_s 07Sep2000                                                                   
   LULTRA =        F    use ultrasoft PP ?                                                          
   IUNSCR =        0    unscreen: 0-lin 1-nonlin 2-no                                               
   RPACOR =    0.000    partial core radius                                                         
   POMASS =   16.000; ZVAL   =    6.000    mass and valenz                                          
   RCORE  =    1.850    outmost cutoff radius                                                       
   RWIGS  =    1.700; RWIGS  =    0.900    wigner-seitz radius (au A)                               
   ENMAX  =  282.853; ENMIN  =  212.140 eV                                                          
   RCLOC  =    0.804    cutoff for local pot                                                        
   LCOR   =        T    correct aug charges                                                         
   LPAW   =        T    paw PP                                                                      
   EAUG   =  412.352                                                                                
   RMAX   =    1.897    core radius for proj-oper                                                   
   RAUG   =    1.300    factor for augmentation sphere                                              
   RDEP   =    1.878    radius for radial grids                                                     
   RDEPT  =    1.572    core radius for aug-charge                                                  
                                                                                                    
   Atomic configuration                                                                             
    4 entries                                                                                       
     n  l   j            E        occ.                                                              
     1  0  0.50      -514.6923   2.0000                                                             
     2  0  0.50       -23.9615   2.0000                                                             
     2  1  0.50        -9.0305   4.0000                                                             
     3  2  1.50        -1.3606   0.0000                                                             
   Description                                                                                      
     l       E           TYP  RCUT    TYP  RCUT                                                     
     0    -23.9615315     23  1.500                                                                 
     0    -25.3221141     23  1.500                                                                 
     1     -9.0304908     23  1.850                                                                 
     1     -7.3935399     23  1.850                                                                 
  local pseudopotential read in
  atomic valenz-charges read in
  non local Contribution for L=           0  read in
    real space projection operators read in
  non local Contribution for L=           0  read in
    real space projection operators read in
  non local Contribution for L=           1  read in
    real space projection operators read in
  non local Contribution for L=           1  read in
    real space projection operators read in
    PAW grid and wavefunctions read in

   number of l-projection  operators is LMAX  =           4
   number of lm-projection operators is LMMAX =           8

 -----------------------------------------------------------------------------
|                                                                             |
|               ----> ADVICE to this user running VASP <----                  |
|                                                                             |
|     You have a (more or less) 'small supercell' and for smaller cells       |
|     it is recommended to use the reciprocal-space projection scheme!        |
|     The real-space optimization is not efficient for small cells and it     |
|     is also less accurate ...                                               |
|     Therefore, set LREAL=.FALSE. in the INCAR file.                         |
|                                                                             |
 -----------------------------------------------------------------------------

 Optimization of the real space projectors (new method)

 maximal supplied QI-value         = 20.41
 optimisation between [QCUT,QGAM] = [ 12.45, 24.90] = [ 43.40,173.61] Ry 
 Optimized for a Real-space Cutoff    1.09 Angstroem

   l    n(q)    QCUT    max X(q) W(low)/X(q) W(high)/X(q)  e(spline) 
   0      8    12.450   146.858    0.15E-03    0.12E-03    0.17E-06
   0      8    12.450   147.587    0.15E-03    0.12E-03    0.17E-06
   1      8    12.450    89.848    0.16E-03    0.39E-03    0.13E-06
   1      8    12.450    79.539    0.16E-03    0.40E-03    0.13E-06
 Optimization of the real space projectors (new method)

 maximal supplied QI-value         = 20.41
 optimisation between [QCUT,QGAM] = [ 12.45, 24.90] = [ 43.40,173.61] Ry 
 Optimized for a Real-space Cutoff    1.13 Angstroem

   l    n(q)    QCUT    max X(q) W(low)/X(q) W(high)/X(q)  e(spline) 
   0      8    12.450   131.351    0.24E-03    0.11E-03    0.28E-06
   0      8    12.450   135.858    0.23E-03    0.11E-03    0.28E-06
   1      8    12.450    82.965    0.10E-03    0.17E-03    0.11E-06
   1      8    12.450    77.399    0.99E-04    0.17E-03    0.11E-06
  PAW_PBE N_s 07Sep2000                 :
 energy of atom  1       EATOM= -264.5486
 kinetic energy error for atom=    0.0016 (will be added to EATOM!!)
  PAW_PBE O_s 07Sep2000                 :
 energy of atom  2       EATOM= -432.3788
 kinetic energy error for atom=    0.0024 (will be added to EATOM!!)


 POSCAR: sisl output
  positions in cartesian coordinates
  No initial velocities read in


 exchange-correlation table for PE
   RHO(1)=    0.500       N(1)  =     2000
   RHO(2)=  100.500       N(2)  =     4000



--------------------------------------------------------------------------------------------------------


 ion  position               nearest neighbor table
   1  0.500  0.500  0.560-   2 1.19
   2  0.500  0.500  0.262-   1 1.19

  LATTYP: Found a simple orthorhombic cell.
 ALAT       =     2.0000000000
 B/A-ratio  =     1.5000000000
 C/A-ratio  =     2.0000000000
  
  Lattice vectors:
  
 A1 = (   2.0000000000,   0.0000000000,   0.0000000000)
 A2 = (   0.0000000000,   3.0000000000,   0.0000000000)
 A3 = (   0.0000000000,   0.0000000000,   4.0000000000)


Analysis of symmetry for initial positions (statically):
=====================================================================
 Subroutine PRICEL returns:
 Original cell was already a primitive cell.
 

 Routine SETGRP: Setting up the symmetry group for a 
 simple orthorhombic supercell.


 Subroutine GETGRP returns: Found  4 space group operations
 (whereof  4 operations were pure point group operations)
 out of a pool of  8 trial point group operations.


The static configuration has the point symmetry C_2v.


Analysis of symmetry for dynamics (positions and initial velocities):
=====================================================================
 Subroutine PRICEL returns:
 Original cell was already a primitive cell.
 

 Routine SETGRP: Setting up the symmetry group for a 
 simple orthorhombic supercell.


 Subroutine GETGRP returns: Found  4 space group operations
 (whereof  4 operations were pure point group operations)
 out of a pool of  8 trial point group operations.


The dynamic configuration has the point symmetry C_2v.


Analysis of constrained symmetry for selective dynamics:
=====================================================================
 Subroutine PRICEL returns:
 Original cell was already a primitive cell.
 

 Routine SETGRP: Setting up the symmetry group for a 
 simple orthorhombic supercell.


 Subroutine GETGRP returns: Found  4 space group operations
 (whereof  4 operations were pure point group operations)
 out of a pool of  8 trial point group operations.


The constrained configuration has the point symmetry C_2v.


Analysis of structural, dynamic, and magnetic symmetry:
=====================================================================
 Subroutine PRICEL returns:
 Original cell was already a primitive cell.
 

 Routine SETGRP: Setting up the symmetry group for a 
 simple orthorhombic supercell.


 Subroutine GETGRP returns: Found  4 space group operations
 (whereof  4 operations were pure point group operations)
 out of a pool of  8 trial point group operations.


The overall configuration has the point symmetry C_2v.


 Subroutine INISYM returns: Found  4 space group operations
 (whereof  4 operations are pure point group operations),
 and found     1 'primitive' translations


----------------------------------------------------------------------------------------

                                     Primitive cell                                     

  volume of cell :      24.0000

  direct lattice vectors                    reciprocal lattice vectors
     2.000000000  0.000000000  0.000000000     0.500000000  0.000000000  0.000000000
     0.000000000  3.000000000  0.000000000     0.000000000  0.333333333  0.000000000
     0.000000000  0.000000000  4.000000000     0.000000000  0.000000000  0.250000000

  length of vectors
     2.000000000  3.000000000  4.000000000     0.500000000  0.333333333  0.250000000

  position of ions in fractional coordinates (direct lattice)
     0.500000000  0.500000000  0.560440282
     0.500000000  0.500000000  0.261936259

  ion indices of the primitive-cell ions
   primitive index   ion index
                 1           1
                 2           2

----------------------------------------------------------------------------------------



 KPOINTS: Automatic generation                    

Automatic generation of k-mesh.
 Grid dimensions read from file:
 generate k-points for:    2    2    1

 Generating k-lattice:

  Cartesian coordinates                     Fractional coordinates (reciprocal lattice)
     0.250000000  0.000000000  0.000000000     0.500000000  0.000000000  0.000000000
     0.000000000  0.166666667  0.000000000     0.000000000  0.500000000  0.000000000
     0.000000000  0.000000000  0.250000000     0.000000000  0.000000000  1.000000000

  Length of vectors
     0.250000000  0.166666667  0.250000000

  Shift w.r.t. Gamma in fractional coordinates (k-lattice)
     0.500000000  0.500000000  0.000000000

 
 Subroutine IBZKPT returns following result:
 ===========================================
 
 Found      1 irreducible k-points:
 
 Following reciprocal coordinates:
            Coordinates               Weight
  0.250000  0.250000  0.000000      4.000000
 
 Following cartesian coordinates:
            Coordinates               Weight
  0.125000  0.083333  0.000000      4.000000
 


--------------------------------------------------------------------------------------------------------




 Dimension of arrays:
   k-points           NKPTS =      1   k-points in BZ     NKDIM =      1   number of bands    NBANDS=     12
   number of dos      NEDOS =    301   number of ions     NIONS =      2
   non local maximal  LDIM  =      4   non local SUM 2l+1 LMDIM =      8
   total plane-waves  NPLWV =  12288
   max r-space proj   IRMAX =   3121   max aug-charges    IRDMAX= 105076
   dimension x,y,z NGX =    16 NGY =   24 NGZ =   32
   dimension x,y,z NGXF=    32 NGYF=   48 NGZF=   64
   support grid    NGXF=    64 NGYF=   96 NGZF=  128
   ions per type =               1   1
   NGX,Y,Z   is equivalent  to a cutoff of  13.30, 13.30, 13.30 a.u.
   NGXF,Y,Z  is equivalent  to a cutoff of  26.60, 26.60, 26.60 a.u.

 SYSTEM =  unknown system                          
 POSCAR =  sisl output                             

 Startparameter for this run:
   NWRITE =      2    write-flag & timer
   PREC   = accura    normal or accurate (medium, high low for compatibility)
   ISTART =      0    job   : 0-new  1-cont  2-samecut
   ICHARG =      2    charge: 1-file 2-atom 10-const
   ISPIN  =      2    spin polarized calculation?
   LNONCOLLINEAR =      F non collinear calculations
   LSORBIT =      F    spin-orbit coupling
   INIWAV =      1    electr: 0-lowe 1-rand  2-diag
   LASPH  =      F    aspherical Exc in radial PAW
 Electronic Relaxation 1
   ENCUT  =  600.0 eV  44.10 Ry    6.64 a.u.   3.99  5.99  7.99*2*pi/ulx,y,z
   ENINI  =  600.0     initial cutoff
   ENAUG  =  412.4 eV  augmentation charge cutoff
   NELM   =     60;   NELMIN=  2; NELMDL= -5     # of ELM steps 
   EDIFF  = 0.1E-05   stopping-criterion for ELM
   LREAL  =      T    real-space projection
   NLSPLINE    = F    spline interpolate recip. space projectors
   LCOMPAT=      F    compatible to vasp.4.4
   GGA_COMPAT  = T    GGA compatible to vasp.4.4-vasp.4.6
   LMAXPAW     = -100 max onsite density
   LMAXMIX     =    2 max onsite mixed and CHGCAR
   VOSKOWN=      0    Vosko Wilk Nusair interpolation
   ROPT   =   -0.00025  -0.00025
 Ionic relaxation
   EDIFFG = -.1E-01   stopping-criterion for IOM
   NSW    =   1000    number of steps for IOM
   NBLOCK =      1;   KBLOCK =   1000    inner block; outer block 
   IBRION =      2    ionic relax: 0-MD 1-quasi-New 2-CG
   NFREE  =      1    steps in history (QN), initial steepest desc. (CG)
   ISIF   =      2    stress and relaxation
   IWAVPR =     11    prediction:  0-non 1-charg 2-wave 3-comb
   ISYM   =      2    0-nonsym 1-usesym 2-fastsym
   LCORR  =      T    Harris-Foulkes like correction to forces

   POTIM  = 0.5000    time-step for ionic-motion
   TEIN   =    0.0    initial temperature
   TEBEG  =    0.0;   TEEND  =   0.0 temperature during run
   SMASS  =  -3.00    Nose mass-parameter (am)
   estimated Nose-frequenzy (Omega)   =  0.10E-29 period in steps = 0.13E+47 mass=  -0.914E-28a.u.
   SCALEE = 1.0000    scale energy and forces
   NPACO  =    256;   APACO  = 10.0  distance and # of slots for P.C.
   PSTRESS=    0.0 pullay stress

  Mass of Ions in am
   POMASS =  14.00 16.00
  Ionic Valenz
   ZVAL   =   5.00  6.00
  Atomic Wigner-Seitz radii
   RWIGS  =  -1.00 -1.00
  virtual crystal weights 
   VCA    =   1.00  1.00
   NELECT =      11.0000    total number of electrons
   NUPDOWN=      -1.0000    fix difference up-down

 DOS related values:
   EMIN   =  10.00;   EMAX   =-10.00  energy-range for DOS
   EFERMI =   0.00;   METHOD = LEGACY      
   ISMEAR =     1;   SIGMA  =   0.10  broadening in eV -4-tet -1-fermi 0-gaus

 Electronic relaxation 2 (details)
   IALGO  =     68    algorithm
   LDIAG  =      T    sub-space diagonalisation (order eigenvalues)
   LSUBROT=      F    optimize rotation matrix (better conditioning)
   TURBO    =      0    0=normal 1=particle mesh
   IRESTART =      0    0=no restart 2=restart with 2 vectors
   NREBOOT  =      0    no. of reboots
   NMIN     =      0    reboot dimension
   EREF     =   0.00    reference energy to select bands
   IMIX   =      4    mixing-type and parameters
     AMIX     =   0.40;   BMIX     =  1.00
     AMIX_MAG =   1.60;   BMIX_MAG =  1.00
     AMIN     =   0.10
     WC   =   100.;   INIMIX=   1;  MIXPRE=   1;  MAXMIX= -45

 Intra band minimization:
   WEIMIN = 0.0010     energy-eigenvalue tresh-hold
   EBREAK =  0.21E-07  absolut break condition
   DEPER  =   0.30     relativ break condition  

   TIME   =   0.40     timestep for ELM

  volume/ion in A,a.u.               =      12.00        80.98
  Fermi-wavevector in a.u.,A,eV,Ry     =   1.262221  2.385251 21.676818  1.593201
  Thomas-Fermi vector in A             =   2.395640

 Write flags
   LWAVE        =      F    write WAVECAR
   LDOWNSAMPLE  =      F    k-point downsampling of WAVECAR
   LCHARG       =      T    write CHGCAR
   LVTOT        =      F    write LOCPOT, total local potential
   LVHAR        =      F    write LOCPOT, Hartree potential only
   WRT_POTENTIAL= false  ! write potential to hdf5 file
   LELF         =      F    write electronic localiz. function (ELF)
   LORBIT       =      0    0 simple, 1 ext, 2 COOP (PROOUT), +10 PAW based schemes


 Dipole corrections
   LMONO      =      F    monopole corrections only (constant potential shift)
   LDIPOL     =      F    correct potential (dipole corrections)
   IDIPOL     =      0    1-x, 2-y, 3-z, 4-all directions 
   EPSILON    =  1.0000000 bulk dielectric constant
   LVACPOTAV  =      F  vacuum potentials using an averaging scheme for the charge density
   VACPOTFLAT =  0.1000000 required flatness to determine vacuum potential
 Exchange correlation treatment:
   GGA     = PE    functional components
   XC_C    = 1    coefficients multiplying the functional components
   LIBXC   =     F    Libxc                    
   VOSKOWN =     0    Vosko Wilk Nusair interpolation
   LHFCALC =     F    Hartree Fock is set to
   LHFONE  =     F    Hartree Fock one center treatment
   AEXX    =    0.0000 exact exchange contribution

 Parameters of functionals:
   PE:
     No parameter

 Van der Waals corrections
   IVDW    =     0    specifies the selected vdW correction

 Linear response parameters
   LEPSILON=     F    determine dielectric tensor
   LRPA    =     F    only Hartree local field effects (RPA)
   LNABLA  =     F    use nabla operator in PAW spheres
   LVEL    =     F    velocity operator in full k-point grid
   CSHIFT  =0.1000    complex shift for real part using Kramers Kronig
   OMEGAMAX=  -1.0    maximum frequency
   DEG_THRESHOLD= 0.2000000E-02 threshold for treating states as degnerate
   RTIME   =   -0.100 relaxation time in fs
  (WPLASMAI=    0.000 imaginary part of plasma frequency in eV, 0.658/RTIME)
   DFIELD  = 0.0000000 0.0000000 0.0000000 field for delta impulse in time

  Optional k-point grid parameters
   LKPOINTS_OPT  =     F    use optional k-point grid
   KPOINTS_OPT_MODE=     1    mode for optional k-point grid

 Orbital magnetization related:
   ORBITALMAG=     F  switch on orbital magnetization
   LCHIMAG   =     F  perturbation theory with respect to B field
   DQ        =  0.001000  dq finite difference perturbation B field
   LLRAUG    =     F  two centre corrections for induced B field
   LBONE     =     F  B-component reconstruction in AE one-centre
   LVGVCALC  =     T  calculate vGv susceptibility
   LVGVAPPL  =     F  apply vGv susceptibility instead of pGv for G=0

 Random number generation:
   RANDOM_GENERATOR = DEFAULT
   PCG_SEED         = not used


--------------------------------------------------------------------------------------------------------


 conjugate gradient relaxation of ions
   using selective dynamics as specified on POSCAR
   WARNING: If single coordinates had been selected the selection of coordinates
            is made according to the corresponding   d i r e c t   coordinates!
            Don't support selection of single cartesian coordinates -- sorry ... !
 charge density and potential will be updated during run
 spin polarized calculation
 RMM-DIIS sequential band-by-band and
  variant of blocked Davidson during initial phase
 perform sub-space diagonalisation
    before iterative eigenvector-optimisation
 modified Broyden-mixing scheme, WC =      100.0
 initial mixing is a Kerker type mixing with AMIX =  0.4000 and BMIX =      1.0000
 Hartree-type preconditioning will be used
 using additional bands            6
 real space projection scheme for non local part
 calculate Harris-corrections to forces   (improved forces if not selfconsistent)
 use gradient corrections 
 use of overlap-Matrix (Vanderbilt PP)
 Methfessel and Paxton  Order N= 1 SIGMA  =   0.10


--------------------------------------------------------------------------------------------------------


  energy-cutoff  :      600.00
  volume of cell :       24.00
      direct lattice vectors                 reciprocal lattice vectors
     2.000000000  0.000000000  0.000000000     0.500000000  0.000000000  0.000000000
     0.000000000  3.000000000  0.000000000     0.000000000  0.333333333  0.000000000
     0.000000000  0.000000000  4.000000000     0.000000000  0.000000000  0.250000000

  length of vectors
     2.000000000  3.000000000  4.000000000     0.500000000  0.333333333  0.250000000



 k-points in units of 2pi/SCALE and weight: Automatic generation                    
   0.12500000  0.08333333  0.00000000       1.000

 k-points in reciprocal lattice and weights: Automatic generation                    
   0.25000000  0.25000000  0.00000000       1.000

 position of ions in fractional coordinates (direct lattice) 
   0.50000000  0.50000000  0.56044028
   0.50000000  0.50000000  0.26193626

 position of ions in cartesian coordinates  (Angst):
   1.00000000  1.50000000  2.24176113
   1.00000000  1.50000000  1.04774504



--------------------------------------------------------------------------------------------------------


 k-point     1 :   0.2500 0.2500 0.0000  plane waves:     798

 maximum and minimum number of plane-waves per node :       798      798

 maximum number of plane-waves:       798
 maximum index in each direction: 
   IXMAX=    3   IYMAX=    5   IZMAX=    7
   IXMIN=   -4   IYMIN=   -6   IZMIN=   -7


 serial   3D FFT for wavefunctions
 parallel 3D FFT for charge:
    minimum data exchange during FFTs selected (reduces bandwidth)


 total amount of memory used by VASP MPI-rank0    37293. kBytes
=======================================================================

   base      :      30000. kBytes
   nonlr-proj:        506. kBytes
   fftplans  :       3687. kBytes
   grid      :       3010. kBytes
   one-center:         12. kBytes
   wavefun   :         78. kBytes

     INWAV:  cpu time      0.0000: real time      0.0000
 Broyden mixing: mesh for mixing (old mesh)
   NGX =  7   NGY = 11   NGZ = 15
  (NGX  = 32   NGY  = 48   NGZ  = 64)
  gives a total of   1155 points

 initial charge density was supplied:
 charge density of overlapping atoms calculated
 number of electron      11.0000000 magnetization       2.0000000
 keeping initial charge density in first step


--------------------------------------------------------------------------------------------------------


 Maximum index for non-local projection operator         2970
 Maximum index for augmentation-charges        25448 (set IRDMAX)


--------------------------------------------------------------------------------------------------------


 First call to EWALD:  gamma=   0.614
 Maximum number of real-space cells 4x 3x 2
 Maximum number of reciprocal cells 2x 3x 4

    FEWALD:  cpu time      0.0007: real time      0.0007


--------------------------------------- Ionic step        1  -------------------------------------------




--------------------------------------- Iteration      1(   1)  ---------------------------------------


    POTLOK:  cpu time      0.0274: real time      0.0274
    SETDIJ:  cpu time      0.0205: real time      0.0206
     EDDAV:  cpu time      0.0209: real time      0.0210
       DOS:  cpu time      0.0002: real time      0.0002
    --------------------------------------------
      LOOP:  cpu time      0.0691: real time      0.0692

 eigenvalue-minimisations  :    48
 total energy-change (2. order) : 0.8146763E+02  (-0.5655903E+03)
 number of electron      11.0000000 magnetization       2.0000000
 augmentation part       11.0000000 magnetization       2.0000000

 Free energy of the ion-electron system (eV)
  ---------------------------------------------------
  alpha Z        PSCENC =        15.03510525
  Ewald energy   TEWEN  =      -399.22983762
  -Hartree energ DENC   =      -260.96009246
  -exchange      EXHF   =         0.00000000
  -V(xc)+E(xc)   XCENC  =        47.47598531
  PAW double counting   =       548.82057942     -554.18101559
  entropy T*S    EENTRO =         0.00289895
  eigenvalues    EBANDS =       -12.41948998
  atomic energy  EATOM  =       696.92349690
  Solvation  Ediel_sol  =         0.00000000
  ---------------------------------------------------
  free energy    TOTEN  =        81.46763020 eV

  energy without entropy =       81.46473124  energy(sigma->0) =       81.46666388


--------------------------------------------------------------------------------------------------------




--------------------------------------- Iteration      1(   2)  ---------------------------------------


     EDDAV:  cpu time      0.0220: real time      0.0220
       DOS:  cpu time      0.0002: real time      0.0002
    --------------------------------------------
      LOOP:  cpu time      0.0221: real time      0.0221

 eigenvalue-minimisations  :    52
 total energy-change (2. order) :-0.8933822E+02  (-0.8625770E+02)
 number of electron      11.0000000 magnetization       2.0000000
 augmentation part       11.0000000 magnetization       2.0000000

 Free energy of the ion-electron system (eV)
  ---------------------------------------------------
  alpha Z        PSCENC =        15.03510525
  Ewald energy   TEWEN  =      -399.22983762
  -Hartree energ DENC   =      -260.96009246
  -exchange      EXHF   =         0.00000000
  -V(xc)+E(xc)   XCENC  =        47.47598531
  PAW double counting   =       548.82057942     -554.18101559
  entropy T*S    EENTRO =         0.00289895
  eigenvalues    EBANDS =      -101.75770607
  atomic energy  EATOM  =       696.92349690
  Solvation  Ediel_sol  =         0.00000000
  ---------------------------------------------------
  free energy    TOTEN  =        -7.87058589 eV

  energy without entropy =       -7.87348484  energy(sigma->0) =       -7.87155221


--------------------------------------------------------------------------------------------------------




--------------------------------------- Iteration      1(   3)  ---------------------------------------


     EDDAV:  cpu time      0.0234: real time      0.0234
       DOS:  cpu time      0.0001: real time      0.0001
    --------------------------------------------
      LOOP:  cpu time      0.0235: real time      0.0236

 eigenvalue-minimisations  :    56
 total energy-change (2. order) :-0.2971959E+01  (-0.2967612E+01)
 number of electron      11.0000000 magnetization       2.0000000
 augmentation part       11.0000000 magnetization       2.0000000

 Free energy of the ion-electron system (eV)
  ---------------------------------------------------
  alpha Z        PSCENC =        15.03510525
  Ewald energy   TEWEN  =      -399.22983762
  -Hartree energ DENC   =      -260.96009246
  -exchange      EXHF   =         0.00000000
  -V(xc)+E(xc)   XCENC  =        47.47598531
  PAW double counting   =       548.82057942     -554.18101559
  entropy T*S    EENTRO =         0.00289895
  eigenvalues    EBANDS =      -104.72966534
  atomic energy  EATOM  =       696.92349690
  Solvation  Ediel_sol  =         0.00000000
  ---------------------------------------------------
  free energy    TOTEN  =       -10.84254517 eV

  energy without entropy =      -10.84544412  energy(sigma->0) =      -10.84351148


--------------------------------------------------------------------------------------------------------




--------------------------------------- Iteration      1(   4)  ---------------------------------------


     EDDAV:  cpu time      0.0235: real time      0.0236
       DOS:  cpu time      0.0001: real time      0.0001
    --------------------------------------------
      LOOP:  cpu time      0.0236: real time      0.0237

 eigenvalue-minimisations  :    56
 total energy-change (2. order) :-0.1846837E-01  (-0.1846798E-01)
 number of electron      11.0000000 magnetization       2.0000000
 augmentation part       11.0000000 magnetization       2.0000000

 Free energy of the ion-electron system (eV)
  ---------------------------------------------------
  alpha Z        PSCENC =        15.03510525
  Ewald energy   TEWEN  =      -399.22983762
  -Hartree energ DENC   =      -260.96009246
  -exchange      EXHF   =         0.00000000
  -V(xc)+E(xc)   XCENC  =        47.47598531
  PAW double counting   =       548.82057942     -554.18101559
  entropy T*S    EENTRO =         0.00289895
  eigenvalues    EBANDS =      -104.74813372
  atomic energy  EATOM  =       696.92349690
  Solvation  Ediel_sol  =         0.00000000
  ---------------------------------------------------
  free energy    TOTEN  =       -10.86101354 eV

  energy without entropy =      -10.86391249  energy(sigma->0) =      -10.86197986


--------------------------------------------------------------------------------------------------------




--------------------------------------- Iteration      1(   5)  ---------------------------------------


     EDDAV:  cpu time      0.0219: real time      0.0219
       DOS:  cpu time      0.0001: real time      0.0001
    CHARGE:  cpu time      0.0199: real time      0.0199
    MIXING:  cpu time      0.0009: real time      0.0009
    --------------------------------------------
      LOOP:  cpu time      0.0429: real time      0.0429

 eigenvalue-minimisations  :    52
 total energy-change (2. order) :-0.2042561E-03  (-0.2042561E-03)
 number of electron      11.0000000 magnetization       0.8614407
 augmentation part        1.7260044 magnetization       0.2059010

 Broyden mixing:
  rms(total) = 0.64194E+01    rms(broyden)= 0.64194E+01
  rms(prec ) = 0.64653E+01
  weight for this iteration     100.00

 Free energy of the ion-electron system (eV)
  ---------------------------------------------------
  alpha Z        PSCENC =        15.03510525
  Ewald energy   TEWEN  =      -399.22983762
  -Hartree energ DENC   =      -260.96009246
  -exchange      EXHF   =         0.00000000
  -V(xc)+E(xc)   XCENC  =        47.47598531
  PAW double counting   =       548.82057942     -554.18101559
  entropy T*S    EENTRO =         0.00289895
  eigenvalues    EBANDS =      -104.74833797
  atomic energy  EATOM  =       696.92349690
  Solvation  Ediel_sol  =         0.00000000
  ---------------------------------------------------
  free energy    TOTEN  =       -10.86121779 eV

  energy without entropy =      -10.86411675  energy(sigma->0) =      -10.86218411


--------------------------------------------------------------------------------------------------------




--------------------------------------- Iteration      1(   6)  ---------------------------------------


    POTLOK:  cpu time      0.0273: real time      0.0273
    SETDIJ:  cpu time      0.0210: real time      0.0211
    EDDIAG:  cpu time      0.0035: real time      0.0035
  RMM-DIIS:  cpu time      0.0095: real time      0.0095
    ORTHCH:  cpu time      0.0006: real time      0.0006
       DOS:  cpu time      0.0001: real time      0.0001
    CHARGE:  cpu time      0.0178: real time      0.0178
    MIXING:  cpu time      0.0009: real time      0.0009
    --------------------------------------------
      LOOP:  cpu time      0.0808: real time      0.0809

 eigenvalue-minimisations  :    48
 total energy-change (2. order) :-0.9168390E-01  (-0.8834169E-01)
 number of electron      11.0000000 magnetization       1.2137160
 augmentation part        1.6481941 magnetization       0.5501115

 Broyden mixing:
  rms(total) = 0.42793E+01    rms(broyden)= 0.42793E+01
  rms(prec ) = 0.43033E+01
  weight for this iteration     100.00

 eigenvalues of (default mixing * dielectric matrix)
  average eigenvalue GAMMA=   1.8959
  1.8959

 Free energy of the ion-electron system (eV)
  ---------------------------------------------------
  alpha Z        PSCENC =        15.03510525
  Ewald energy   TEWEN  =      -399.22983762
  -Hartree energ DENC   =      -264.88764563
  -exchange      EXHF   =         0.00000000
  -V(xc)+E(xc)   XCENC  =        47.69747774
  PAW double counting   =      1235.20973944    -1240.94423341
  entropy T*S    EENTRO =         0.00289895
  eigenvalues    EBANDS =      -100.75990332
  atomic energy  EATOM  =       696.92349690
  Solvation  Ediel_sol  =         0.00000000
  ---------------------------------------------------
  free energy    TOTEN  =       -10.95290169 eV

  energy without entropy =      -10.95580065  energy(sigma->0) =      -10.95386801


--------------------------------------------------------------------------------------------------------




--------------------------------------- Iteration      1(   7)  ---------------------------------------


    POTLOK:  cpu time      0.0275: real time      0.0275
    SETDIJ:  cpu time      0.0208: real time      0.0208
    EDDIAG:  cpu time      0.0035: real time      0.0035
  RMM-DIIS:  cpu time      0.0096: real time      0.0096
    ORTHCH:  cpu time      0.0006: real time      0.0006
       DOS:  cpu time      0.0001: real time      0.0001
    CHARGE:  cpu time      0.0178: real time      0.0178
    MIXING:  cpu time      0.0009: real time      0.0009
    --------------------------------------------
      LOOP:  cpu time      0.0807: real time      0.0808

 eigenvalue-minimisations  :    48
 total energy-change (2. order) : 0.2045879E+00  (-0.9141076E-01)
 number of electron      11.0000000 magnetization       1.0920557
 augmentation part        1.7024913 magnetization       0.4210743

 Broyden mixing:
  rms(total) = 0.14151E+01    rms(broyden)= 0.14151E+01
  rms(prec ) = 0.17211E+01
  weight for this iteration     100.00

 eigenvalues of (default mixing * dielectric matrix)
  average eigenvalue GAMMA=   1.6253
  2.6552  0.5953

 Free energy of the ion-electron system (eV)
  ---------------------------------------------------
  alpha Z        PSCENC =        15.03510525
  Ewald energy   TEWEN  =      -399.22983762
  -Hartree energ DENC   =      -263.97005339
  -exchange      EXHF   =         0.00000000
  -V(xc)+E(xc)   XCENC  =        47.98635451
  PAW double counting   =      2965.55104765    -2971.34607037
  entropy T*S    EENTRO =         0.00289898
  eigenvalues    EBANDS =      -101.70125573
  atomic energy  EATOM  =       696.92349690
  Solvation  Ediel_sol  =         0.00000000
  ---------------------------------------------------
  free energy    TOTEN  =       -10.74831383 eV

  energy without entropy =      -10.75121280  energy(sigma->0) =      -10.74928015


--------------------------------------------------------------------------------------------------------




--------------------------------------- Iteration      1(   8)  ---------------------------------------


    POTLOK:  cpu time      0.0274: real time      0.0274
    SETDIJ:  cpu time      0.0208: real time      0.0209
    EDDIAG:  cpu time      0.0035: real time      0.0035
  RMM-DIIS:  cpu time      0.0096: real time      0.0096
    ORTHCH:  cpu time      0.0006: real time      0.0006
       DOS:  cpu time      0.0001: real time      0.0001
    CHARGE:  cpu time      0.0177: real time      0.0178
    MIXING:  cpu time      0.0010: real time      0.0010
    --------------------------------------------
      LOOP:  cpu time      0.0807: real time      0.0809

 eigenvalue-minimisations  :    48
 total energy-change (2. order) :-0.1749179E+00  (-0.4784223E-01)
 number of electron      11.0000000 magnetization       1.0017354
 augmentation part        1.6407085 magnetization       0.3354724

 Broyden mixing:
  rms(total) = 0.21469E+00    rms(broyden)= 0.21468E+00
  rms(prec ) = 0.23083E+00
  weight for this iteration     100.00

 eigenvalues of (default mixing * dielectric matrix)
  average eigenvalue GAMMA=   1.3244
  2.6466  0.7508  0.5759

 Free energy of the ion-electron system (eV)
  ---------------------------------------------------
  alpha Z        PSCENC =        15.03510525
  Ewald energy   TEWEN  =      -399.22983762
  -Hartree energ DENC   =      -266.18446399
  -exchange      EXHF   =         0.00000000
  -V(xc)+E(xc)   XCENC  =        47.97857850
  PAW double counting   =      3416.40984988    -3422.39055879
  entropy T*S    EENTRO =         0.00289895
  eigenvalues    EBANDS =       -99.46830078
  atomic energy  EATOM  =       696.92349690
  Solvation  Ediel_sol  =         0.00000000
  ---------------------------------------------------
  free energy    TOTEN  =       -10.92323168 eV

  energy without entropy =      -10.92613063  energy(sigma->0) =      -10.92419800


--------------------------------------------------------------------------------------------------------




--------------------------------------- Iteration      1(   9)  ---------------------------------------


    POTLOK:  cpu time      0.0274: real time      0.0274
    SETDIJ:  cpu time      0.0208: real time      0.0208
    EDDIAG:  cpu time      0.0035: real time      0.0035
  RMM-DIIS:  cpu time      0.0097: real time      0.0098
    ORTHCH:  cpu time      0.0006: real time      0.0006
       DOS:  cpu time      0.0001: real time      0.0001
    CHARGE:  cpu time      0.0182: real time      0.0182
    MIXING:  cpu time      0.0010: real time      0.0010
    --------------------------------------------
      LOOP:  cpu time      0.0812: real time      0.0813

 eigenvalue-minimisations  :    48
 total energy-change (2. order) :-0.6297159E-02  (-0.3918631E-02)
 number of electron      11.0000000 magnetization       0.9905517
 augmentation part        1.6432878 magnetization       0.3228381

 Broyden mixing:
  rms(total) = 0.82449E-01    rms(broyden)= 0.82447E-01
  rms(prec ) = 0.97129E-01
  weight for this iteration     100.00

 eigenvalues of (default mixing * dielectric matrix)
  average eigenvalue GAMMA=   1.1967
  2.5958  0.9559  0.5974  0.6378

 Free energy of the ion-electron system (eV)
  ---------------------------------------------------
  alpha Z        PSCENC =        15.03510525
  Ewald energy   TEWEN  =      -399.22983762
  -Hartree energ DENC   =      -265.76276362
  -exchange      EXHF   =         0.00000000
  -V(xc)+E(xc)   XCENC  =        47.92465484
  PAW double counting   =      3359.53253221    -3365.44572717
  entropy T*S    EENTRO =         0.00289895
  eigenvalues    EBANDS =       -99.90988860
  atomic energy  EATOM  =       696.92349690
  Solvation  Ediel_sol  =         0.00000000
  ---------------------------------------------------
  free energy    TOTEN  =       -10.92952884 eV

  energy without entropy =      -10.93242779  energy(sigma->0) =      -10.93049515


--------------------------------------------------------------------------------------------------------




--------------------------------------- Iteration      1(  10)  ---------------------------------------


    POTLOK:  cpu time      0.0274: real time      0.0274
    SETDIJ:  cpu time      0.0209: real time      0.0209
    EDDIAG:  cpu time      0.0035: real time      0.0035
  RMM-DIIS:  cpu time      0.0095: real time      0.0095
    ORTHCH:  cpu time      0.0006: real time      0.0006
       DOS:  cpu time      0.0001: real time      0.0001
    CHARGE:  cpu time      0.0179: real time      0.0181
    MIXING:  cpu time      0.0010: real time      0.0010
    --------------------------------------------
      LOOP:  cpu time      0.0808: real time      0.0811

 eigenvalue-minimisations  :    48
 total energy-change (2. order) : 0.1653070E-02  (-0.4304183E-03)
 number of electron      11.0000000 magnetization       0.9983358
 augmentation part        1.6472339 magnetization       0.3312295

 Broyden mixing:
  rms(total) = 0.28502E-01    rms(broyden)= 0.28501E-01
  rms(prec ) = 0.35371E-01
  weight for this iteration     100.00

 eigenvalues of (default mixing * dielectric matrix)
  average eigenvalue GAMMA=   1.1649
  2.5303  1.3177  0.7403  0.6182  0.6182

 Free energy of the ion-electron system (eV)
  ---------------------------------------------------
  alpha Z        PSCENC =        15.03510525
  Ewald energy   TEWEN  =      -399.22983762
  -Hartree energ DENC   =      -265.49150035
  -exchange      EXHF   =         0.00000000
  -V(xc)+E(xc)   XCENC  =        47.89098712
  PAW double counting   =      3328.28023862    -3334.16066873
  entropy T*S    EENTRO =         0.00289895
  eigenvalues    EBANDS =      -100.17859591
  atomic energy  EATOM  =       696.92349690
  Solvation  Ediel_sol  =         0.00000000
  ---------------------------------------------------
  free energy    TOTEN  =       -10.92787577 eV

  energy without entropy =      -10.93077472  energy(sigma->0) =      -10.92884208


--------------------------------------------------------------------------------------------------------




--------------------------------------- Iteration      1(  11)  ---------------------------------------


    POTLOK:  cpu time      0.0274: real time      0.0275
    SETDIJ:  cpu time      0.0208: real time      0.0208
    EDDIAG:  cpu time      0.0036: real time      0.0036
  RMM-DIIS:  cpu time      0.0097: real time      0.0097
    ORTHCH:  cpu time      0.0006: real time      0.0006
       DOS:  cpu time      0.0001: real time      0.0001
    CHARGE:  cpu time      0.0179: real time      0.0179
    MIXING:  cpu time      0.0010: real time      0.0010
    --------------------------------------------
      LOOP:  cpu time      0.0811: real time      0.0812

 eigenvalue-minimisations  :    48
 total energy-change (2. order) : 0.2267823E-03  (-0.9545683E-04)
 number of electron      11.0000000 magnetization       1.0016479
 augmentation part        1.6486468 magnetization       0.3351759

 Broyden mixing:
  rms(total) = 0.14837E-01    rms(broyden)= 0.14837E-01
  rms(prec ) = 0.16273E-01
  weight for this iteration     100.00

 eigenvalues of (default mixing * dielectric matrix)
  average eigenvalue GAMMA=   1.1309
  2.5044  1.3367  1.0412  0.7190  0.5920  0.5920

 Free energy of the ion-electron system (eV)
  ---------------------------------------------------
  alpha Z        PSCENC =        15.03510525
  Ewald energy   TEWEN  =      -399.22983762
  -Hartree energ DENC   =      -265.41838953
  -exchange      EXHF   =         0.00000000
  -V(xc)+E(xc)   XCENC  =        47.88003300
  PAW double counting   =      3315.46546597    -3321.33181242
  entropy T*S    EENTRO =         0.00289895
  eigenvalues    EBANDS =      -100.25460950
  atomic energy  EATOM  =       696.92349690
  Solvation  Ediel_sol  =         0.00000000
  ---------------------------------------------------
  free energy    TOTEN  =       -10.92764898 eV

  energy without entropy =      -10.93054794  energy(sigma->0) =      -10.92861530


--------------------------------------------------------------------------------------------------------




--------------------------------------- Iteration      1(  12)  ---------------------------------------


    POTLOK:  cpu time      0.0275: real time      0.0276
    SETDIJ:  cpu time      0.0210: real time      0.0211
    EDDIAG:  cpu time      0.0035: real time      0.0035
  RMM-DIIS:  cpu time      0.0095: real time      0.0095
    ORTHCH:  cpu time      0.0006: real time      0.0006
       DOS:  cpu time      0.0001: real time      0.0001
    CHARGE:  cpu time      0.0180: real time      0.0180
    MIXING:  cpu time      0.0010: real time      0.0010
    --------------------------------------------
      LOOP:  cpu time      0.0813: real time      0.0814

 eigenvalue-minimisations  :    48
 total energy-change (2. order) : 0.2992785E-05  (-0.1385127E-04)
 number of electron      11.0000000 magnetization       1.0004161
 augmentation part        1.6483586 magnetization       0.3338002

 Broyden mixing:
  rms(total) = 0.74331E-02    rms(broyden)= 0.74330E-02
  rms(prec ) = 0.80980E-02
  weight for this iteration     100.00

 eigenvalues of (default mixing * dielectric matrix)
  average eigenvalue GAMMA=   1.1817
  2.4804  1.5558  1.5558  0.7568  0.7568  0.5831  0.5831

 Free energy of the ion-electron system (eV)
  ---------------------------------------------------
  alpha Z        PSCENC =        15.03510525
  Ewald energy   TEWEN  =      -399.22983762
  -Hartree energ DENC   =      -265.44840874
  -exchange      EXHF   =         0.00000000
  -V(xc)+E(xc)   XCENC  =        47.88096416
  PAW double counting   =      3315.08989521    -3320.95684417
  entropy T*S    EENTRO =         0.00289895
  eigenvalues    EBANDS =      -100.22491595
  atomic energy  EATOM  =       696.92349690
  Solvation  Ediel_sol  =         0.00000000
  ---------------------------------------------------
  free energy    TOTEN  =       -10.92764599 eV

  energy without entropy =      -10.93054494  energy(sigma->0) =      -10.92861231


--------------------------------------------------------------------------------------------------------




--------------------------------------- Iteration      1(  13)  ---------------------------------------


    POTLOK:  cpu time      0.0276: real time      0.0276
    SETDIJ:  cpu time      0.0211: real time      0.0212
    EDDIAG:  cpu time      0.0036: real time      0.0036
  RMM-DIIS:  cpu time      0.0095: real time      0.0095
    ORTHCH:  cpu time      0.0006: real time      0.0006
       DOS:  cpu time      0.0001: real time      0.0001
    CHARGE:  cpu time      0.0180: real time      0.0181
    MIXING:  cpu time      0.0010: real time      0.0010
    --------------------------------------------
      LOOP:  cpu time      0.0816: real time      0.0817

 eigenvalue-minimisations  :    48
 total energy-change (2. order) :-0.3686759E-05  (-0.3858085E-05)
 number of electron      11.0000000 magnetization       0.9997503
 augmentation part        1.6485548 magnetization       0.3330411

 Broyden mixing:
  rms(total) = 0.40389E-02    rms(broyden)= 0.40388E-02
  rms(prec ) = 0.42562E-02
  weight for this iteration     100.00

 eigenvalues of (default mixing * dielectric matrix)
  average eigenvalue GAMMA=   1.2460
  2.3322  2.3322  1.7882  0.9651  0.7519  0.6220  0.6220  0.5545

 Free energy of the ion-electron system (eV)
  ---------------------------------------------------
  alpha Z        PSCENC =        15.03510525
  Ewald energy   TEWEN  =      -399.22983762
  -Hartree energ DENC   =      -265.45774432
  -exchange      EXHF   =         0.00000000
  -V(xc)+E(xc)   XCENC  =        47.88056030
  PAW double counting   =      3314.82802384    -3320.69417667
  entropy T*S    EENTRO =         0.00289895
  eigenvalues    EBANDS =      -100.21597632
  atomic energy  EATOM  =       696.92349690
  Solvation  Ediel_sol  =         0.00000000
  ---------------------------------------------------
  free energy    TOTEN  =       -10.92764968 eV

  energy without entropy =      -10.93054863  energy(sigma->0) =      -10.92861600


--------------------------------------------------------------------------------------------------------




--------------------------------------- Iteration      1(  14)  ---------------------------------------


    POTLOK:  cpu time      0.0274: real time      0.0274
    SETDIJ:  cpu time      0.0209: real time      0.0210
    EDDIAG:  cpu time      0.0035: real time      0.0035
  RMM-DIIS:  cpu time      0.0096: real time      0.0096
    ORTHCH:  cpu time      0.0006: real time      0.0007
       DOS:  cpu time      0.0001: real time      0.0001
    CHARGE:  cpu time      0.0179: real time      0.0179
    MIXING:  cpu time      0.0011: real time      0.0011
    --------------------------------------------
      LOOP:  cpu time      0.0812: real time      0.0813

 eigenvalue-minimisations  :    48
 total energy-change (2. order) :-0.1674441E-05  (-0.6459102E-06)
 number of electron      11.0000000 magnetization       1.0000120
 augmentation part        1.6484922 magnetization       0.3333368

 Broyden mixing:
  rms(total) = 0.10364E-02    rms(broyden)= 0.10364E-02
  rms(prec ) = 0.11585E-02
  weight for this iteration     100.00

 eigenvalues of (default mixing * dielectric matrix)
  average eigenvalue GAMMA=   1.2047
  2.4175  2.4175  1.7687  0.9272  0.7741  0.7741  0.5543  0.6046  0.6046

 Free energy of the ion-electron system (eV)
  ---------------------------------------------------
  alpha Z        PSCENC =        15.03510525
  Ewald energy   TEWEN  =      -399.22983762
  -Hartree energ DENC   =      -265.46121319
  -exchange      EXHF   =         0.00000000
  -V(xc)+E(xc)   XCENC  =        47.88064171
  PAW double counting   =      3313.94445921    -3319.81052091
  entropy T*S    EENTRO =         0.00289895
  eigenvalues    EBANDS =      -100.21268166
  atomic energy  EATOM  =       696.92349690
  Solvation  Ediel_sol  =         0.00000000
  ---------------------------------------------------
  free energy    TOTEN  =       -10.92765135 eV

  energy without entropy =      -10.93055031  energy(sigma->0) =      -10.92861767


--------------------------------------------------------------------------------------------------------




--------------------------------------- Iteration      1(  15)  ---------------------------------------


    POTLOK:  cpu time      0.0274: real time      0.0275
    SETDIJ:  cpu time      0.0208: real time      0.0209
    EDDIAG:  cpu time      0.0035: real time      0.0035
  RMM-DIIS:  cpu time      0.0082: real time      0.0082
    ORTHCH:  cpu time      0.0006: real time      0.0006
       DOS:  cpu time      0.0001: real time      0.0001
    --------------------------------------------
      LOOP:  cpu time      0.0606: real time      0.0607

 eigenvalue-minimisations  :    36
 total energy-change (2. order) :-0.3356222E-06  (-0.1654958E-06)
 number of electron      11.0000000 magnetization       1.0000120
 augmentation part        1.6484922 magnetization       0.3333368

 Free energy of the ion-electron system (eV)
  ---------------------------------------------------
  alpha Z        PSCENC =        15.03510525
  Ewald energy   TEWEN  =      -399.22983762
  -Hartree energ DENC   =      -265.45856046
  -exchange      EXHF   =         0.00000000
  -V(xc)+E(xc)   XCENC  =        47.88061445
  PAW double counting   =      3313.95851314    -3319.82430907
  entropy T*S    EENTRO =         0.00289895
  eigenvalues    EBANDS =      -100.21557324
  atomic energy  EATOM  =       696.92349690
  Solvation  Ediel_sol  =         0.00000000
  ---------------------------------------------------
  free energy    TOTEN  =       -10.92765169 eV

  energy without entropy =      -10.93055064  energy(sigma->0) =      -10.92861801


--------------------------------------------------------------------------------------------------------




 average (electrostatic) potential at core
  the test charge radii are     0.9051  0.8742
  (the norm of the test charge is              1.0000)
       1 -81.9128       2 -87.1726



 E-fermi :   1.7598     XC(G=0):  -8.9692     alpha+bet : -7.2825

 val. band max:        1.6756568329   @ k =   0.2500   0.2500   0.0000
 cond. band min:       2.6696511034   @ k =   0.2500   0.2500   0.0000
 fundamental gap:      0.9939942706
 Fermi energy:         1.7598450545

 spin component 1

 k-point     1 :       0.2500    0.2500    0.0000
  band No.  band energies     occupation 
      1     -24.7482      1.00000
      2     -10.5980      1.00000
      3      -7.0751      1.00000
      4      -6.1131      1.00000
      5      -4.1408      1.00000
      6       1.6757      1.00000
      7       2.6697     -0.00000
      8      11.4074      0.00000
      9      14.2280      0.00000
     10      15.9421      0.00000
     11      19.6669      0.00000
     12      20.3872      0.00000
 Fermi energy:         1.7598450545

 spin component 2

 k-point     1 :       0.2500    0.2500    0.0000
  band No.  band energies     occupation 
      1     -24.2457      1.00000
      2      -9.7829      1.00000
      3      -6.7077      1.00000
      4      -4.8193      1.00000
      5      -3.6605      1.00000
      6       3.2201     -0.00000
      7       3.5874     -0.00000
      8      11.9303      0.00000
      9      14.7475      0.00000
     10      16.2752      0.00000
     11      19.9513      0.00000
     12      21.1304      0.00000


--------------------------------------------------------------------------------------------------------


 soft charge-density along one line, spin component           1
         0         1         2         3         4         5         6         7         8         9
 total charge-density along one line

 soft charge-density along one line, spin component           2
         0         1         2         3         4         5         6         7         8         9
 total charge-density along one line

 pseudopotential strength for first ion, spin component:           1
 25.455  25.995  -0.000   0.220  -0.000  -0.000   0.268  -0.000
 25.995  26.548  -0.000   0.225  -0.000  -0.000   0.274  -0.000
 -0.000  -0.000  -4.822  -0.000  -0.000  -5.370  -0.000  -0.000
  0.220   0.225  -0.000  -4.938  -0.000  -0.000  -5.506  -0.000
 -0.000  -0.000  -0.000  -0.000  -4.768  -0.000  -0.000  -5.304
 -0.000  -0.000  -5.370  -0.000  -0.000  -5.945  -0.000  -0.000
  0.268   0.274  -0.000  -5.506  -0.000  -0.000  -6.103  -0.000
 -0.000  -0.000  -0.000  -0.000  -5.304  -0.000  -0.000  -5.864
 pseudopotential strength for first ion, spin component:           2
 25.139  25.672  -0.000   0.222  -0.000  -0.000   0.269  -0.000
 25.672  26.218  -0.000   0.227  -0.000  -0.000   0.276  -0.000
 -0.000  -0.000  -4.213  -0.000  -0.000  -4.647  -0.000  -0.000
  0.222   0.227  -0.000  -4.827  -0.000  -0.000  -5.373  -0.000
 -0.000  -0.000  -0.000  -0.000  -4.624  -0.000  -0.000  -5.133
 -0.000  -0.000  -4.647  -0.000  -0.000  -5.087  -0.000  -0.000
  0.269   0.276  -0.000  -5.373  -0.000  -0.000  -5.945  -0.000
 -0.000  -0.000  -0.000  -0.000  -5.133  -0.000  -0.000  -5.661
 total augmentation occupancy for first ion, spin component:           1
 37.045 -35.711   0.000  28.066   0.000   0.000 -20.646   0.000
-35.711  36.211   0.000 -28.323   0.000   0.000  21.095   0.000
  0.000   0.000   7.217   0.000   0.000  -4.593   0.000   0.000
 28.066 -28.323   0.000  30.616   0.000   0.000 -21.756   0.000
  0.000   0.000   0.000   0.000   8.392   0.000   0.000  -5.089
  0.000   0.000  -4.593   0.000   0.000   3.626   0.000   0.000
-20.646  21.095   0.000 -21.756   0.000   0.000  15.739   0.000
  0.000   0.000   0.000   0.000  -5.089   0.000   0.000   3.145
 total augmentation occupancy for first ion, spin component:           2
  0.751  -0.379   0.000  -0.242   0.000   0.000   0.237   0.000
 -0.379   0.049   0.000   0.293   0.000   0.000  -0.279   0.000
  0.000   0.000  -0.539   0.000   0.000   0.071   0.000   0.000
 -0.242   0.293   0.000  -0.435   0.000   0.000   0.338   0.000
  0.000   0.000   0.000   0.000  -0.315   0.000   0.000   0.247
  0.000   0.000   0.071   0.000   0.000   0.820   0.000   0.000
  0.237  -0.279   0.000   0.338   0.000   0.000  -0.254   0.000
  0.000   0.000   0.000   0.000   0.247   0.000   0.000  -0.178


------------------------ aborting loop because EDIFF is reached ----------------------------------------


    CHARGE:  cpu time      0.0179: real time      0.0179
    FORLOC:  cpu time      0.0008: real time      0.0008
    FORNL :  cpu time      0.1087: real time      0.1088
    STRESS:  cpu time      0.3423: real time      0.3423
    FORHAR:  cpu time      0.0034: real time      0.0034
    MIXING:  cpu time      0.0010: real time      0.0010
    OFIELD:  cpu time      0.0000: real time      0.0000

  FORCE on cell =-STRESS in cart. coord.  units (eV):
  Direction    XX          YY          ZZ          XY          YZ          ZX
  --------------------------------------------------------------------------------------
  Alpha Z    15.03511    15.03511    15.03511
  Ewald     -17.05136  -314.53652   -67.64213     0.00000    -0.00000     0.00000
  Hartree   182.68274    18.04724    64.72131    -0.00000    -0.00000    -0.00000
  E(xc)     -50.16752   -50.88371   -49.67581    -0.00000    -0.00000     0.00000
  Local    -402.14222    30.39077  -212.02520     0.00000    -0.00000    -0.00000
  n-local    49.27565    48.66640    37.80381    -0.13002     0.00000    -0.00000
  augment    52.20844    59.39624    51.13889    -0.00000     0.00000     0.00000
  Kinetic   177.47622   194.34263   163.52218    -2.81466    -0.00000     0.00000
  Fock        0.00000     0.00000     0.00000     0.00000     0.00000     0.00000
  -------------------------------------------------------------------------------------
  Total       7.31706     0.45816     2.87815     0.00000     0.00000     0.00000
  in kB     488.46797    30.58537   192.13781     0.00000     0.00000     0.00000
  external pressure =      237.06 kB  Pullay stress =        0.00 kB


 VOLUME and BASIS-vectors are now :
 -----------------------------------------------------------------------------
  energy-cutoff  :      600.00
  volume of cell :       24.00
      direct lattice vectors                 reciprocal lattice vectors
     2.000000000  0.000000000  0.000000000     0.500000000  0.000000000  0.000000000
     0.000000000  3.000000000  0.000000000     0.000000000  0.333333333  0.000000000
     0.000000000  0.000000000  4.000000000     0.000000000  0.000000000  0.250000000

  length of vectors
     2.000000000  3.000000000  4.000000000     0.500000000  0.333333333  0.250000000


 FORCES acting on ions
    electron-ion (+dipol)            ewald-force                    non-local-force                 convergence-correction
 -----------------------------------------------------------------------------------------------
   0.439E-13 0.114E-12 -.254E+03   0.912E-15 0.932E-16 0.307E+03   0.000E+00 0.000E+00 -.480E+02   0.555E-15 0.342E-14 -.854E-02
   0.647E-13 0.313E-12 0.231E+03   -.391E-15 -.603E-15 -.307E+03   0.000E+00 0.331E-23 0.713E+02   -.100E-14 -.119E-14 0.799E-02
 -----------------------------------------------------------------------------------------------
   0.109E-12 0.426E-12 -.233E+02   0.521E-15 -.510E-15 0.000E+00   0.000E+00 0.331E-23 0.233E+02   -.448E-15 0.223E-14 -.551E-03


 POSITION                                       TOTAL-FORCE (eV/Angst)
 -----------------------------------------------------------------------------------
      1.00000      1.50000      2.24176         0.000000      0.000000      4.726028
      1.00000      1.50000      1.04775         0.000000      0.000000     -4.726028
 -----------------------------------------------------------------------------------
    total drift:                                0.000000      0.000000     -0.006168


--------------------------------------------------------------------------------------------------------



  FREE ENERGIE OF THE ION-ELECTRON SYSTEM (eV)
  ---------------------------------------------------
  free  energy   TOTEN  =       -10.92765169 eV

  energy  without entropy=      -10.93055064  energy(sigma->0) =      -10.92861801



--------------------------------------------------------------------------------------------------------


    POTLOK:  cpu time      0.0480: real time      0.0481


--------------------------------------------------------------------------------------------------------




--------------------------------------------------------------------------------------------------------


    WAVPRE:  cpu time      0.0878: real time      0.0878
    FEWALD:  cpu time      0.0004: real time      0.0004
    ORTHCH:  cpu time      0.0025: real time      0.0025
     LOOP+:  cpu time      1.6074: real time      1.6095


--------------------------------------- Ionic step        2  -------------------------------------------




--------------------------------------- Iteration      2(   1)  ---------------------------------------


    POTLOK:  cpu time      0.0271: real time      0.0271
    SETDIJ:  cpu time      0.0213: real time      0.0213
     EDDAV:  cpu time      0.0185: real time      0.0185
       DOS:  cpu time      0.0001: real time      0.0001
    CHARGE:  cpu time      0.0182: real time      0.0182
    MIXING:  cpu time      0.0014: real time      0.0014
    --------------------------------------------
      LOOP:  cpu time      0.0867: real time      0.0867

 eigenvalue-minimisations  :    48
 total energy-change (2. order) : 0.2369961E+01  (-0.2781063E+02)
 number of electron      11.0000000 magnetization       0.9999977
 augmentation part        1.4096106 magnetization       0.2951951

 Broyden mixing:
  rms(total) = 0.46536E+01    rms(broyden)= 0.46536E+01
  rms(prec ) = 0.48089E+01
  weight for this iteration     100.00

 Free energy of the ion-electron system (eV)
  ---------------------------------------------------
  alpha Z        PSCENC =        15.03510525
  Ewald energy   TEWEN  =      -490.18801383
  -Hartree energ DENC   =      -198.40056794
  -exchange      EXHF   =         0.00000000
  -V(xc)+E(xc)   XCENC  =        46.58667826
  PAW double counting   =      3314.07951213    -3319.94506167
  entropy T*S    EENTRO =         0.00289895
  eigenvalues    EBANDS =       -72.65173855
  atomic energy  EATOM  =       696.92349690
  Solvation  Ediel_sol  =         0.00000000
  ---------------------------------------------------
  free energy    TOTEN  =        -8.55769049 eV

  energy without entropy =       -8.56058944  energy(sigma->0) =       -8.55865681


--------------------------------------------------------------------------------------------------------




--------------------------------------- Iteration      2(   2)  ---------------------------------------


    POTLOK:  cpu time      0.0275: real time      0.0275
    SETDIJ:  cpu time      0.0211: real time      0.0211
    EDDIAG:  cpu time      0.0034: real time      0.0034
  RMM-DIIS:  cpu time      0.0102: real time      0.0102
    ORTHCH:  cpu time      0.0006: real time      0.0006
       DOS:  cpu time      0.0001: real time      0.0001
    CHARGE:  cpu time      0.0181: real time      0.0181
    MIXING:  cpu time      0.0015: real time      0.0015
    --------------------------------------------
      LOOP:  cpu time      0.0825: real time      0.0825

 eigenvalue-minimisations  :    48
 total energy-change (2. order) :-0.1228203E+01  (-0.5360065E+00)
 number of electron      11.0000000 magnetization       0.9999992
 augmentation part        1.2783541 magnetization       0.3391617

 Broyden mixing:
  rms(total) = 0.30190E+01    rms(broyden)= 0.30190E+01
  rms(prec ) = 0.43316E+01
  weight for this iteration     100.00

 eigenvalues of (default mixing * dielectric matrix)
  average eigenvalue GAMMA=   1.2692
  1.2692

 Free energy of the ion-electron system (eV)
  ---------------------------------------------------
  alpha Z        PSCENC =        15.03510525
  Ewald energy   TEWEN  =      -490.18801383
  -Hartree energ DENC   =      -194.85065976
  -exchange      EXHF   =         0.00000000
  -V(xc)+E(xc)   XCENC  =        46.16472653
  PAW double counting   =      2320.26466575    -2325.87992757
  entropy T*S    EENTRO =         0.00289895
  eigenvalues    EBANDS =       -77.25818588
  atomic energy  EATOM  =       696.92349690
  Solvation  Ediel_sol  =         0.00000000
  ---------------------------------------------------
  free energy    TOTEN  =        -9.78589365 eV

  energy without entropy =       -9.78879261  energy(sigma->0) =       -9.78685997


--------------------------------------------------------------------------------------------------------




--------------------------------------- Iteration      2(   3)  ---------------------------------------


    POTLOK:  cpu time      0.0278: real time      0.0278
    SETDIJ:  cpu time      0.0221: real time      0.0221
    EDDIAG:  cpu time      0.0037: real time      0.0037
  RMM-DIIS:  cpu time      0.0100: real time      0.0100
    ORTHCH:  cpu time      0.0006: real time      0.0006
       DOS:  cpu time      0.0001: real time      0.0001
    CHARGE:  cpu time      0.0174: real time      0.0174
    MIXING:  cpu time      0.0015: real time      0.0015
    --------------------------------------------
      LOOP:  cpu time      0.0831: real time      0.0831

 eigenvalue-minimisations  :    48
 total energy-change (2. order) :-0.1095355E+01  (-0.2665197E+00)
 number of electron      11.0000000 magnetization       1.0000027
 augmentation part        1.6077609 magnetization       0.2805407

 Broyden mixing:
  rms(total) = 0.28878E+01    rms(broyden)= 0.28877E+01
  rms(prec ) = 0.41546E+01
  weight for this iteration     100.00

 eigenvalues of (default mixing * dielectric matrix)
  average eigenvalue GAMMA=   1.3170
  2.3459  0.2880

 Free energy of the ion-electron system (eV)
  ---------------------------------------------------
  alpha Z        PSCENC =        15.03510525
  Ewald energy   TEWEN  =      -490.18801383
  -Hartree energ DENC   =      -187.62694308
  -exchange      EXHF   =         0.00000000
  -V(xc)+E(xc)   XCENC  =        45.78462677
  PAW double counting   =      2014.17285227    -2019.27824076
  entropy T*S    EENTRO =         0.00289895
  eigenvalues    EBANDS =       -85.70703123
  atomic energy  EATOM  =       696.92349690
  Solvation  Ediel_sol  =         0.00000000
  ---------------------------------------------------
  free energy    TOTEN  =       -10.88124874 eV

  energy without entropy =      -10.88414770  energy(sigma->0) =      -10.88221506


--------------------------------------------------------------------------------------------------------




--------------------------------------- Iteration      2(   4)  ---------------------------------------


    POTLOK:  cpu time      0.0273: real time      0.0273
    SETDIJ:  cpu time      0.0211: real time      0.0211
    EDDIAG:  cpu time      0.0034: real time      0.0034
  RMM-DIIS:  cpu time      0.0095: real time      0.0095
    ORTHCH:  cpu time      0.0006: real time      0.0006
       DOS:  cpu time      0.0001: real time      0.0001
    CHARGE:  cpu time      0.0173: real time      0.0173
    MIXING:  cpu time      0.0015: real time      0.0015
    --------------------------------------------
      LOOP:  cpu time      0.0808: real time      0.0808

 eigenvalue-minimisations  :    48
 total energy-change (2. order) : 0.1765254E+01  (-0.3532159E-01)
 number of electron      11.0000000 magnetization       1.0000003
 augmentation part        1.5299316 magnetization       0.2949525

 Broyden mixing:
  rms(total) = 0.89625E+00    rms(broyden)= 0.89625E+00
  rms(prec ) = 0.19737E+01
  weight for this iteration     100.00

 eigenvalues of (default mixing * dielectric matrix)
  average eigenvalue GAMMA=   1.1975
  2.6186  0.6545  0.3193

 Free energy of the ion-electron system (eV)
  ---------------------------------------------------
  alpha Z        PSCENC =        15.03510525
  Ewald energy   TEWEN  =      -490.18801383
  -Hartree energ DENC   =      -187.69489223
  -exchange      EXHF   =         0.00000000
  -V(xc)+E(xc)   XCENC  =        45.72287898
  PAW double counting   =      1158.94156966    -1164.05282972
  entropy T*S    EENTRO =         0.00289895
  eigenvalues    EBANDS =       -83.80620851
  atomic energy  EATOM  =       696.92349690
  Solvation  Ediel_sol  =         0.00000000
  ---------------------------------------------------
  free energy    TOTEN  =        -9.11599455 eV

  energy without entropy =       -9.11889350  energy(sigma->0) =       -9.11696086


--------------------------------------------------------------------------------------------------------




--------------------------------------- Iteration      2(   5)  ---------------------------------------


    POTLOK:  cpu time      0.0272: real time      0.0272
    SETDIJ:  cpu time      0.0209: real time      0.0209
    EDDIAG:  cpu time      0.0034: real time      0.0034
  RMM-DIIS:  cpu time      0.0094: real time      0.0094
    ORTHCH:  cpu time      0.0006: real time      0.0006
       DOS:  cpu time      0.0001: real time      0.0001
    CHARGE:  cpu time      0.0174: real time      0.0174
    MIXING:  cpu time      0.0015: real time      0.0015
    --------------------------------------------
      LOOP:  cpu time      0.0806: real time      0.0806

 eigenvalue-minimisations  :    48
 total energy-change (2. order) : 0.4888073E+00  (-0.1374136E-01)
 number of electron      11.0000000 magnetization       1.0000001
 augmentation part        1.4339587 magnetization       0.3119402

 Broyden mixing:
  rms(total) = 0.16837E+00    rms(broyden)= 0.16830E+00
  rms(prec ) = 0.29846E+00
  weight for this iteration     100.00

 eigenvalues of (default mixing * dielectric matrix)
  average eigenvalue GAMMA=   1.0810
  2.5838  0.3149  0.7354  0.6897

 Free energy of the ion-electron system (eV)
  ---------------------------------------------------
  alpha Z        PSCENC =        15.03510525
  Ewald energy   TEWEN  =      -490.18801383
  -Hartree energ DENC   =      -189.02303365
  -exchange      EXHF   =         0.00000000
  -V(xc)+E(xc)   XCENC  =        45.78097247
  PAW double counting   =      1104.14377173    -1109.29223035
  entropy T*S    EENTRO =         0.00289895
  eigenvalues    EBANDS =       -82.01015474
  atomic energy  EATOM  =       696.92349690
  Solvation  Ediel_sol  =         0.00000000
  ---------------------------------------------------
  free energy    TOTEN  =        -8.62718726 eV

  energy without entropy =       -8.63008622  energy(sigma->0) =       -8.62815358


--------------------------------------------------------------------------------------------------------




--------------------------------------- Iteration      2(   6)  ---------------------------------------


    POTLOK:  cpu time      0.0272: real time      0.0272
    SETDIJ:  cpu time      0.0207: real time      0.0208
    EDDIAG:  cpu time      0.0034: real time      0.0034
  RMM-DIIS:  cpu time      0.0095: real time      0.0095
    ORTHCH:  cpu time      0.0006: real time      0.0006
       DOS:  cpu time      0.0001: real time      0.0001
    CHARGE:  cpu time      0.0172: real time      0.0172
    MIXING:  cpu time      0.0016: real time      0.0016
    --------------------------------------------
      LOOP:  cpu time      0.0803: real time      0.0804

 eigenvalue-minimisations  :    48
 total energy-change (2. order) : 0.2995985E-02  (-0.1048639E-02)
 number of electron      11.0000000 magnetization       1.0000000
 augmentation part        1.4229041 magnetization       0.3083667

 Broyden mixing:
  rms(total) = 0.79453E-01    rms(broyden)= 0.79426E-01
  rms(prec ) = 0.90662E-01
  weight for this iteration     100.00

 eigenvalues of (default mixing * dielectric matrix)
  average eigenvalue GAMMA=   1.0329
  2.5819  0.3139  0.7889  0.7889  0.6911

 Free energy of the ion-electron system (eV)
  ---------------------------------------------------
  alpha Z        PSCENC =        15.03510525
  Ewald energy   TEWEN  =      -490.18801383
  -Hartree energ DENC   =      -189.13258989
  -exchange      EXHF   =         0.00000000
  -V(xc)+E(xc)   XCENC  =        45.78404198
  PAW double counting   =      1114.58037660    -1119.67662265
  entropy T*S    EENTRO =         0.00289895
  eigenvalues    EBANDS =       -81.95288460
  atomic energy  EATOM  =       696.92349690
  Solvation  Ediel_sol  =         0.00000000
  ---------------------------------------------------
  free energy    TOTEN  =        -8.62419128 eV

  energy without entropy =       -8.62709023  energy(sigma->0) =       -8.62515760


--------------------------------------------------------------------------------------------------------




--------------------------------------- Iteration      2(   7)  ---------------------------------------


    POTLOK:  cpu time      0.0273: real time      0.0273
    SETDIJ:  cpu time      0.0215: real time      0.0215
    EDDIAG:  cpu time      0.0034: real time      0.0034
  RMM-DIIS:  cpu time      0.0095: real time      0.0095
    ORTHCH:  cpu time      0.0006: real time      0.0006
       DOS:  cpu time      0.0001: real time      0.0001
    CHARGE:  cpu time      0.0174: real time      0.0174
    MIXING:  cpu time      0.0015: real time      0.0015
    --------------------------------------------
      LOOP:  cpu time      0.0814: real time      0.0814

 eigenvalue-minimisations  :    48
 total energy-change (2. order) :-0.5219451E-02  (-0.3142153E-03)
 number of electron      11.0000000 magnetization       1.0000000
 augmentation part        1.4238976 magnetization       0.3002695

 Broyden mixing:
  rms(total) = 0.74303E-01    rms(broyden)= 0.74295E-01
  rms(prec ) = 0.78188E-01
[...]
    MIXING:  cpu time      0.0009: real time      0.0009
    OFIELD:  cpu time      0.0000: real time      0.0000

  FORCE on cell =-STRESS in cart. coord.  units (eV):
  Direction    XX          YY          ZZ          XY          YZ          ZX
  --------------------------------------------------------------------------------------
  Alpha Z    15.03511    15.03511    15.03511
  Ewald     -23.97218  -317.15658   -72.14566     0.00000     0.00000     0.00000
  Hartree   174.19917    12.24098    68.06105    -0.00000    -0.00000    -0.00000
  E(xc)     -49.82044   -50.54695   -49.35633    -0.00000    -0.00000    -0.00000
  Local    -385.32122    40.46744  -214.12237     0.00000     0.00000    -0.00000
  n-local    49.29672    48.64475    37.64405    -0.12858    -0.00000     0.00000
  augment    51.08195    58.13564    50.22156     0.00000     0.00000     0.00000
  Kinetic   176.99197   193.62976   161.33320    -3.02296     0.00000     0.00000
  Fock        0.00000     0.00000     0.00000     0.00000     0.00000     0.00000
  -------------------------------------------------------------------------------------
  Total       7.49107     0.45015    -3.32940     0.00000     0.00000     0.00000
  in kB     500.08433    30.05067  -222.26226     0.00000     0.00000     0.00000
  external pressure =      102.62 kB  Pullay stress =        0.00 kB


 VOLUME and BASIS-vectors are now :
 -----------------------------------------------------------------------------
  energy-cutoff  :      600.00
  volume of cell :       24.00
      direct lattice vectors                 reciprocal lattice vectors
     2.000000000  0.000000000  0.000000000     0.500000000  0.000000000  0.000000000
     0.000000000  3.000000000  0.000000000     0.000000000  0.333333333  0.000000000
     0.000000000  0.000000000  4.000000000     0.000000000  0.000000000  0.250000000

  length of vectors
     2.000000000  3.000000000  4.000000000     0.500000000  0.333333333  0.250000000


 FORCES acting on ions
    electron-ion (+dipol)            ewald-force                    non-local-force                 convergence-correction
 -----------------------------------------------------------------------------------------------
   0.433E-13 -.246E-12 -.234E+03   0.344E-14 0.653E-16 0.280E+03   0.000E+00 -.207E-24 -.462E+02   -.140E-15 -.463E-14 0.444E-02
   0.746E-13 -.123E-12 0.213E+03   -.292E-14 -.579E-15 -.280E+03   0.000E+00 0.103E-24 0.670E+02   -.483E-16 -.437E-15 -.743E-02
 -----------------------------------------------------------------------------------------------
   0.118E-12 -.369E-12 -.208E+02   0.521E-15 -.514E-15 0.000E+00   0.000E+00 -.103E-24 0.208E+02   -.188E-15 -.507E-14 -.299E-02


 POSITION                                       TOTAL-FORCE (eV/Angst)
 -----------------------------------------------------------------------------------
      1.00000      1.50000      2.26570         0.000000      0.000000      0.035155
      1.00000      1.50000      1.02381         0.000000      0.000000     -0.035155
 -----------------------------------------------------------------------------------
    total drift:                                0.000000     -0.000000     -0.009494


--------------------------------------------------------------------------------------------------------



  FREE ENERGIE OF THE ION-ELECTRON SYSTEM (eV)
  ---------------------------------------------------
  free  energy   TOTEN  =       -11.03510735 eV

  energy  without entropy=      -11.03800630  energy(sigma->0) =      -11.03607366

 d Force = 0.2010099E-02[-0.265E-03, 0.429E-02]  d Energy = 0.2039224E-02-0.291E-04
 d Force =-0.2094252E+01[-0.211E+01,-0.208E+01]  d Ewald  =-0.2094219E+01-0.331E-04


--------------------------------------------------------------------------------------------------------


    POTLOK:  cpu time      0.0484: real time      0.0484


--------------------------------------------------------------------------------------------------------




--------------------------------------------------------------------------------------------------------


    WAVPRE:  cpu time      0.0017: real time      0.0017
    FEWALD:  cpu time      0.0007: real time      0.0007
    ORTHCH:  cpu time      0.0025: real time      0.0025
     LOOP+:  cpu time      1.0330: real time      1.0331


--------------------------------------- Ionic step        7  -------------------------------------------




--------------------------------------- Iteration      7(   1)  ---------------------------------------


    POTLOK:  cpu time      0.0270: real time      0.0270
    SETDIJ:  cpu time      0.0208: real time      0.0208
     EDDAV:  cpu time      0.0180: real time      0.0180
       DOS:  cpu time      0.0001: real time      0.0001
    CHARGE:  cpu time      0.0172: real time      0.0172
    MIXING:  cpu time      0.0014: real time      0.0014
    --------------------------------------------
      LOOP:  cpu time      0.0846: real time      0.0846

 eigenvalue-minimisations  :    48
 total energy-change (2. order) :-0.6557397E-05  (-0.2470175E-04)
 number of electron      11.0000000 magnetization       1.0000000
 augmentation part        1.6055743 magnetization       0.3324979

 Broyden mixing:
  rms(total) = 0.63685E-02    rms(broyden)= 0.63684E-02
  rms(prec ) = 0.64500E-02
  weight for this iteration     100.00

 Free energy of the ion-electron system (eV)
  ---------------------------------------------------
  alpha Z        PSCENC =        15.03510525
  Ewald energy   TEWEN  =      -413.39699071
  -Hartree energ DENC   =      -254.41846580
  -exchange      EXHF   =         0.00000000
  -V(xc)+E(xc)   XCENC  =        47.54782743
  PAW double counting   =      2888.36578285    -2894.03093905
  entropy T*S    EENTRO =         0.00289895
  eigenvalues    EBANDS =       -97.06382975
  atomic energy  EATOM  =       696.92349690
  Solvation  Ediel_sol  =         0.00000000
  ---------------------------------------------------
  free energy    TOTEN  =       -11.03511393 eV

  energy without entropy =      -11.03801289  energy(sigma->0) =      -11.03608025


--------------------------------------------------------------------------------------------------------




--------------------------------------- Iteration      7(   2)  ---------------------------------------


    POTLOK:  cpu time      0.0274: real time      0.0274
    SETDIJ:  cpu time      0.0210: real time      0.0210
    EDDIAG:  cpu time      0.0034: real time      0.0034
  RMM-DIIS:  cpu time      0.0094: real time      0.0094
    ORTHCH:  cpu time      0.0006: real time      0.0006
       DOS:  cpu time      0.0001: real time      0.0001
    CHARGE:  cpu time      0.0174: real time      0.0175
    MIXING:  cpu time      0.0015: real time      0.0015
    --------------------------------------------
      LOOP:  cpu time      0.0808: real time      0.0809

 eigenvalue-minimisations  :    44
 total energy-change (2. order) :-0.4319604E-06  (-0.1069036E-05)
 number of electron      11.0000000 magnetization       1.0000000
 augmentation part        1.6056263 magnetization       0.3325124

 Broyden mixing:
  rms(total) = 0.39433E-02    rms(broyden)= 0.39433E-02
  rms(prec ) = 0.39755E-02
  weight for this iteration     100.00

 eigenvalues of (default mixing * dielectric matrix)
  average eigenvalue GAMMA=   1.5037
  1.5037

 Free energy of the ion-electron system (eV)
  ---------------------------------------------------
  alpha Z        PSCENC =        15.03510525
  Ewald energy   TEWEN  =      -413.39699071
  -Hartree energ DENC   =      -254.41219984
  -exchange      EXHF   =         0.00000000
  -V(xc)+E(xc)   XCENC  =        47.54726018
  PAW double counting   =      2887.26823226    -2892.93256659
  entropy T*S    EENTRO =         0.00289895
  eigenvalues    EBANDS =       -97.07035078
  atomic energy  EATOM  =       696.92349690
  Solvation  Ediel_sol  =         0.00000000
  ---------------------------------------------------
  free energy    TOTEN  =       -11.03511436 eV

  energy without entropy =      -11.03801332  energy(sigma->0) =      -11.03608068


--------------------------------------------------------------------------------------------------------




--------------------------------------- Iteration      7(   3)  ---------------------------------------


    POTLOK:  cpu time      0.0272: real time      0.0272
    SETDIJ:  cpu time      0.0208: real time      0.0208
    EDDIAG:  cpu time      0.0035: real time      0.0035
  RMM-DIIS:  cpu time      0.0075: real time      0.0075
    ORTHCH:  cpu time      0.0006: real time      0.0006
       DOS:  cpu time      0.0001: real time      0.0001
    --------------------------------------------
      LOOP:  cpu time      0.0598: real time      0.0598

 eigenvalue-minimisations  :    30
 total energy-change (2. order) :-0.1735666E-06  (-0.1614501E-06)
 number of electron      11.0000000 magnetization       1.0000000
 augmentation part        1.6056263 magnetization       0.3325124

 Free energy of the ion-electron system (eV)
  ---------------------------------------------------
  alpha Z        PSCENC =        15.03510525
  Ewald energy   TEWEN  =      -413.39699071
  -Hartree energ DENC   =      -254.40522448
  -exchange      EXHF   =         0.00000000
  -V(xc)+E(xc)   XCENC  =        47.54674989
  PAW double counting   =      2885.73358775    -2891.39724375
  entropy T*S    EENTRO =         0.00289895
  eigenvalues    EBANDS =       -97.07749435
  atomic energy  EATOM  =       696.92349690
  Solvation  Ediel_sol  =         0.00000000
  ---------------------------------------------------
  free energy    TOTEN  =       -11.03511454 eV

  energy without entropy =      -11.03801349  energy(sigma->0) =      -11.03608086


--------------------------------------------------------------------------------------------------------




 average (electrostatic) potential at core
  the test charge radii are     0.9051  0.8742
  (the norm of the test charge is              1.0000)
       1 -81.7686       2 -86.8495



 E-fermi :   1.4339     XC(G=0):  -9.0359     alpha+bet : -7.2825

 val. band max:        1.3496847784   @ k =   0.2500   0.2500   0.0000
 cond. band min:       2.3419807934   @ k =   0.2500   0.2500   0.0000
 fundamental gap:      0.9922960151
 Fermi energy:         1.4338730000

 spin component 1

 k-point     1 :       0.2500    0.2500    0.0000
  band No.  band energies     occupation 
      1     -23.7608      1.00000
      2     -10.8418      1.00000
      3      -6.7345      1.00000
      4      -5.6434      1.00000
      5      -3.9575      1.00000
      6       1.3497      1.00000
      7       2.3420     -0.00000
      8      11.5388      0.00000
      9      12.9209      0.00000
     10      15.7440      0.00000
     11      19.6655      0.00000
     12      20.4028      0.00000
 Fermi energy:         1.4338730000

 spin component 2

 k-point     1 :       0.2500    0.2500    0.0000
  band No.  band energies     occupation 
      1     -23.2543      1.00000
      2     -10.0079      1.00000
      3      -6.3702      1.00000
      4      -4.3456      1.00000
      5      -3.5112      1.00000
      6       2.8943     -0.00000
      7       3.2629     -0.00000
      8      12.0636      0.00000
      9      13.5379      0.00000
     10      15.9610      0.00000
     11      19.9334      0.00000
     12      21.1409      0.00000


--------------------------------------------------------------------------------------------------------


 soft charge-density along one line, spin component           1
         0         1         2         3         4         5         6         7         8         9
 total charge-density along one line

 soft charge-density along one line, spin component           2
         0         1         2         3         4         5         6         7         8         9
 total charge-density along one line

 pseudopotential strength for first ion, spin component:           1
 25.430  25.970  -0.000   0.185  -0.000  -0.000   0.224  -0.000
 25.970  26.521  -0.000   0.189  -0.000  -0.000   0.230  -0.000
 -0.000  -0.000  -4.828  -0.000  -0.000  -5.377  -0.000  -0.000
  0.185   0.189  -0.000  -4.882  -0.000  -0.000  -5.440  -0.000
 -0.000  -0.000  -0.000  -0.000  -4.773  -0.000  -0.000  -5.310
 -0.000  -0.000  -5.377  -0.000  -0.000  -5.954  -0.000  -0.000
  0.224   0.230  -0.000  -5.440  -0.000  -0.000  -6.025  -0.000
 -0.000  -0.000  -0.000  -0.000  -5.310  -0.000  -0.000  -5.871
 pseudopotential strength for first ion, spin component:           2
 25.108  25.640   0.000   0.185  -0.000   0.000   0.225  -0.000
 25.640  26.185   0.000   0.189  -0.000   0.000   0.230  -0.000
  0.000   0.000  -4.214  -0.000  -0.000  -4.648  -0.000  -0.000
  0.185   0.189  -0.000  -4.768  -0.000  -0.000  -5.304  -0.000
 -0.000  -0.000  -0.000  -0.000  -4.627  -0.000  -0.000  -5.136
  0.000   0.000  -4.648  -0.000  -0.000  -5.088  -0.000  -0.000
  0.225   0.230  -0.000  -5.304  -0.000  -0.000  -5.863  -0.000
 -0.000  -0.000  -0.000  -0.000  -5.136  -0.000  -0.000  -5.664
 total augmentation occupancy for first ion, spin component:           1
 33.913 -32.323   0.000  25.027   0.000   0.000 -18.157   0.000
-32.323  32.590   0.000 -25.145   0.000   0.000  18.489   0.000
  0.000   0.000   6.195   0.000   0.000  -3.794   0.000   0.000
 25.027 -25.145   0.000  27.296   0.000   0.000 -19.200   0.000
  0.000   0.000   0.000   0.000   7.497   0.000   0.000  -4.483
  0.000   0.000  -3.794   0.000   0.000   2.998   0.000   0.000
-18.157  18.489   0.000 -19.200   0.000   0.000  13.749   0.000
  0.000   0.000   0.000   0.000  -4.483   0.000   0.000   2.753
 total augmentation occupancy for first ion, spin component:           2
  0.839  -0.454   0.000  -0.249   0.000   0.000   0.243   0.000
 -0.454   0.114   0.000   0.296   0.000   0.000  -0.281   0.000
  0.000   0.000  -0.575   0.000   0.000   0.184   0.000   0.000
 -0.249   0.296   0.000  -0.454   0.000   0.000   0.353   0.000
  0.000   0.000   0.000   0.000  -0.299   0.000   0.000   0.236
  0.000   0.000   0.184   0.000   0.000   0.660   0.000   0.000
  0.243  -0.281   0.000   0.353   0.000   0.000  -0.267   0.000
  0.000   0.000   0.000   0.000   0.236   0.000   0.000  -0.168


------------------------ aborting loop because EDIFF is reached ----------------------------------------


    CHARGE:  cpu time      0.0173: real time      0.0173
    FORLOC:  cpu time      0.0013: real time      0.0013
    FORNL :  cpu time      0.1100: real time      0.1101
    STRESS:  cpu time      0.3579: real time      0.3580
    FORHAR:  cpu time      0.0034: real time      0.0034
    MIXING:  cpu time      0.0009: real time      0.0009
    OFIELD:  cpu time      0.0000: real time      0.0000

  FORCE on cell =-STRESS in cart. coord.  units (eV):
  Direction    XX          YY          ZZ          XY          YZ          ZX
  --------------------------------------------------------------------------------------
  Alpha Z    15.03511    15.03511    15.03511
  Ewald     -24.03424  -317.18021   -72.18271     0.00000     0.00000    -0.00000
  Hartree   174.13062    12.19263    68.09211    -0.00000    -0.00000    -0.00000
  E(xc)     -49.81687   -50.54352   -49.35305     0.00000     0.00000     0.00000
  Local    -385.17778    40.55519  -214.14179    -0.00000     0.00000    -0.00000
  n-local    49.29927    48.64691    37.64713    -0.12853     0.00000    -0.00000
  augment    51.07643    58.12862    50.21661     0.00000     0.00000     0.00000
  Kinetic   176.98720   193.62409   161.31512    -3.02459     0.00000     0.00000
  Fock        0.00000     0.00000     0.00000     0.00000     0.00000     0.00000
  -------------------------------------------------------------------------------------
  Total       7.49973     0.45881    -3.37148     0.00000     0.00000     0.00000
  in kB     500.66228    30.62899  -225.07108     0.00000     0.00000     0.00000
  external pressure =      102.07 kB  Pullay stress =        0.00 kB


 VOLUME and BASIS-vectors are now :
 -----------------------------------------------------------------------------
  energy-cutoff  :      600.00
  volume of cell :       24.00
      direct lattice vectors                 reciprocal lattice vectors
     2.000000000  0.000000000  0.000000000     0.500000000  0.000000000  0.000000000
     0.000000000  3.000000000  0.000000000     0.000000000  0.333333333  0.000000000
     0.000000000  0.000000000  4.000000000     0.000000000  0.000000000  0.250000000

  length of vectors
     2.000000000  3.000000000  4.000000000     0.500000000  0.333333333  0.250000000


 FORCES acting on ions
    electron-ion (+dipol)            ewald-force                    non-local-force                 convergence-correction
 -----------------------------------------------------------------------------------------------
   0.412E-13 0.474E-13 -.234E+03   -.232E-14 -.139E-15 0.280E+03   0.000E+00 0.000E+00 -.462E+02   -.169E-14 -.430E-14 0.122E-01
   0.662E-13 -.189E-12 0.213E+03   0.284E-14 -.368E-15 -.280E+03   0.000E+00 -.207E-24 0.670E+02   -.170E-14 -.188E-14 0.172E-01
 -----------------------------------------------------------------------------------------------
   0.107E-12 -.142E-12 -.208E+02   0.521E-15 -.507E-15 0.000E+00   0.000E+00 -.207E-24 0.207E+02   -.339E-14 -.618E-14 0.294E-01


 POSITION                                       TOTAL-FORCE (eV/Angst)
 -----------------------------------------------------------------------------------
      1.00000      1.50000      2.26592         0.000000     -0.000000     -0.002077
      1.00000      1.50000      1.02359         0.000000      0.000000      0.002077
 -----------------------------------------------------------------------------------
    total drift:                                0.000000     -0.000000     -0.007406


--------------------------------------------------------------------------------------------------------



  FREE ENERGIE OF THE ION-ELECTRON SYSTEM (eV)
  ---------------------------------------------------
  free  energy   TOTEN  =       -11.03511454 eV

  energy  without entropy=      -11.03801349  energy(sigma->0) =      -11.03608086

 d Force = 0.7253019E-05[-0.911E-06, 0.154E-04]  d Energy = 0.7193255E-05 0.598E-07
 d Force = 0.1227418E+00[ 0.123E+00, 0.123E+00]  d Ewald  = 0.1227418E+00 0.662E-08


--------------------------------------------------------------------------------------------------------


    POTLOK:  cpu time      0.0484: real time      0.0484


--------------------------------------------------------------------------------------------------------




--------------------------------------------------------------------------------------------------------


  
 reached required accuracy - stopping structural energy minimisation
     LOOP+:  cpu time      0.7899: real time      0.7902
    4ORBIT:  cpu time      0.0000: real time      0.0000

 total amount of memory used by VASP MPI-rank0    37293. kBytes
=======================================================================

   base      :      30000. kBytes
   nonlr-proj:        506. kBytes
   fftplans  :       3687. kBytes
   grid      :       3010. kBytes
   one-center:         12. kBytes
   wavefun   :         78. kBytes

  
  
 General timing and accounting informations for this job:
 ========================================================
  
                  Total CPU time used (sec):       10.171
                            User time (sec):        9.320
                          System time (sec):        0.851
                         Elapsed time (sec):       10.183
  
                   Maximum memory used (kb):       84280.
                   Average memory used (kb):          N/A
  
                          Minor page faults:       255175
                          Major page faults:            5
                 Voluntary context switches:          110
