<?xml version="1.0" encoding="ISO-8859-1"?>
<modeling>
 <generator>
  <i name="program" type="string">vasp </i>
  <i name="version" type="string">6.4.3  </i>
  <i name="subversion" type="string">19Mar24 (build Jun 11 2024 09:57:22) complex                          parallel </i>
  <i name="platform" type="string">LinuxGNU </i>
  <i name="date" type="string">2024 07 25 </i>
  <i name="time" type="string">11:23:53 </i>
 </generator>
 <incar>
  <i type="string" name="PREC">Accurate</i>
  <i type="string" name="ALGO">FAST</i>
  <i type="logical" name="ADDGRID"> T  </i>
  <i type="int" name="ISPIN">     2</i>
  <i type="int" name="IBRION">     2</i>
  <i name="EDIFF">      0.00000100</i>
  <i name="EDIFFG">     -0.01000000</i>
  <i type="int" name="NSW">  1000</i>
  <i name="ENCUT">    600.00000000</i>
  <i type="string" name="LREAL">Auto</i>
  <i type="int" name="ISMEAR">     1</i>
  <i name="SIGMA">      0.10000000</i>
  <i type="logical" name="LWAVE"> F  </i>
  <i type="logical" name="LCHARG"> T  </i>
 </incar>
 <primitive_cell>
  <structure name="primitive_cell" >
   <crystal>
    <varray name="basis" >
     <v>       2.00000000       0.00000000       0.00000000 </v>
     <v>       0.00000000       3.00000000       0.00000000 </v>
     <v>       0.00000000       0.00000000       4.00000000 </v>
    </varray>
    <i name="volume">     24.00000000 </i>
    <varray name="rec_basis" >
     <v>       0.50000000       0.00000000       0.00000000 </v>
     <v>       0.00000000       0.33333333       0.00000000 </v>
     <v>       0.00000000       0.00000000       0.25000000 </v>
    </varray>
   </crystal>
   <varray name="positions" >
    <v>       0.50000000       0.50000000       0.56044028 </v>
    <v>       0.50000000       0.50000000       0.26193626 </v>
   </varray>
  </structure>
  <varray name="primitive_index" >
   <v type="int" >        1 </v>
   <v type="int" >        2 </v>
  </varray>
 </primitive_cell>
 <kpoints>
  <generation param="Monkhorst-Pack">
   <v type="int" name="divisions">       2        2        1 </v>
   <v name="usershift">      0.00000000       0.00000000       0.00000000 </v>
   <v name="genvec1">      0.50000000       0.00000000       0.00000000 </v>
   <v name="genvec2">      0.00000000       0.50000000       0.00000000 </v>
   <v name="genvec3">      0.00000000       0.00000000       1.00000000 </v>
   <v name="shift">      0.50000000       0.50000000       0.00000000 </v>
  </generation>
  <varray name="kpointlist" >
   <v>       0.25000000       0.25000000       0.00000000 </v>
  </varray>
  <varray name="weights" >
   <v>       1.00000000 </v>
  </varray>
 </kpoints>
 <parameters>
  <separator name="general" >
   <i type="string" name="SYSTEM">unknown system</i>
   <i type="logical" name="LCOMPAT"> F  </i>
  </separator>
  <separator name="electronic" >
   <i type="string" name="PREC">accura</i>
   <i name="ENMAX">    600.00000000</i>
   <i name="ENAUG">    412.35200000</i>
   <i name="EDIFF">      0.00000100</i>
   <i type="int" name="IALGO">    68</i>
   <i type="int" name="IWAVPR">    11</i>
   <i type="int" name="NBANDS">    12</i>
   <i type="int" name="NBANDSLOW">    -1</i>
   <i type="int" name="NBANDSHIGH">    -1</i>
   <i name="NELECT">     11.00000000</i>
   <i type="int" name="TURBO">     0</i>
   <i type="int" name="IRESTART">     0</i>
   <i type="int" name="NREBOOT">     0</i>
   <i type="int" name="NMIN">     0</i>
   <i name="EREF">      0.00000000</i>
   <separator name="electronic smearing" >
    <i type="int" name="ISMEAR">     1</i>
    <i name="SIGMA">      0.10000000</i>
    <i name="KSPACING">      0.50000000</i>
    <i type="logical" name="KGAMMA"> T  </i>
    <i type="logical" name="KBLOWUP"> T  </i>
   </separator>
   <separator name="electronic projectors" >
    <i type="logical" name="LREAL"> T  </i>
    <v name="ROPT">     -0.00025000     -0.00025000</v>
    <i type="int" name="LMAXPAW">  -100</i>
    <i type="int" name="LMAXMIX">     2</i>
    <i type="logical" name="NLSPLINE"> F  </i>
   </separator>
   <separator name="electronic startup" >
    <i type="int" name="ISTART">     0</i>
    <i type="int" name="ICHARG">     2</i>
    <i type="int" name="INIWAV">     1</i>
   </separator>
   <separator name="electronic spin" >
    <i type="int" name="ISPIN">     2</i>
    <i type="logical" name="LNONCOLLINEAR"> F  </i>
    <v name="MAGMOM">      1.00000000      1.00000000</v>
    <i name="NUPDOWN">     -1.00000000</i>
    <i type="logical" name="LSORBIT"> F  </i>
    <v name="SAXIS">      0.00000000      0.00000000      1.00000000</v>
    <i type="logical" name="LSPIRAL"> F  </i>
    <v name="QSPIRAL">      0.00000000      0.00000000      0.00000000</v>
    <i type="logical" name="LZEROZ"> F  </i>
   </separator>
   <separator name="electronic exchange-correlation" >
    <i type="logical" name="LASPH"> F  </i>
   </separator>
   <separator name="electronic convergence" >
    <i type="int" name="NELM">    60</i>
    <i type="int" name="NELMDL">    -5</i>
    <i type="int" name="NELMIN">     2</i>
    <i name="ENINI">    600.00000000</i>
    <separator name="electronic convergence detail" >
     <i type="logical" name="LDIAG"> T  </i>
     <i type="logical" name="LSUBROT"> F  </i>
     <i name="WEIMIN">      0.00100000</i>
     <i name="EBREAK">      0.00000002</i>
     <i name="DEPER">      0.30000000</i>
     <i type="int" name="NRMM">     4</i>
     <i name="TIME">      0.40000000</i>
    </separator>
   </separator>
   <separator name="electronic mixer" >
    <i name="AMIX">      0.40000000</i>
    <i name="BMIX">      1.00000000</i>
    <i name="AMIN">      0.10000000</i>
    <i name="AMIX_MAG">      1.60000000</i>
    <i name="BMIX_MAG">      1.00000000</i>
    <separator name="electronic mixer details" >
     <i type="int" name="IMIX">     4</i>
     <i type="logical" name="MIXFIRST"> F  </i>
     <i type="int" name="MAXMIX">   -45</i>
     <i name="WC">    100.00000000</i>
     <i type="int" name="INIMIX">     1</i>
     <i type="int" name="MIXPRE">     1</i>
     <i type="int" name="MREMOVE">     5</i>
    </separator>
   </separator>
   <separator name="electronic dipolcorrection" >
    <i type="logical" name="LDIPOL"> F  </i>
    <i type="logical" name="LMONO"> F  </i>
    <i type="int" name="IDIPOL">     0</i>
    <i name="EPSILON">      1.00000000</i>
    <v name="DIPOL">   -100.00000000   -100.00000000   -100.00000000</v>
    <i name="EFIELD">      0.00000000</i>
    <i type="logical" name="LVACPOTAV"> F  </i>
   </separator>
  </separator>
  <separator name="grids" >
   <i type="int" name="NGX">    16</i>
   <i type="int" name="NGY">    24</i>
   <i type="int" name="NGZ">    32</i>
   <i type="int" name="NGXF">    32</i>
   <i type="int" name="NGYF">    48</i>
   <i type="int" name="NGZF">    64</i>
   <i type="logical" name="ADDGRID"> T  </i>
  </separator>
  <separator name="ionic" >
   <i type="int" name="NSW">  1000</i>
   <i type="int" name="IBRION">     2</i>
   <i type="int" name="MDALGO">     0</i>
   <i type="int" name="ISIF">     2</i>
   <i name="PSTRESS">      0.00000000</i>
   <i name="EDIFFG">     -0.01000000</i>
   <i type="int" name="NFREE">     1</i>
   <i name="POTIM">      0.50000000</i>
   <i name="SMASS">     -3.00000000</i>
   <i name="SCALEE">      1.00000000</i>
  </separator>
  <separator name="ionic md" >
   <i name="TEBEG">      0.00010000</i>
   <i name="TEEND">      0.00010000</i>
   <i type="int" name="NBLOCK">     1</i>
   <i type="int" name="KBLOCK">  1000</i>
   <i type="int" name="NPACO">   256</i>
   <i name="APACO">     10.00000000</i>
  </separator>
  <separator name="symmetry" >
   <i type="int" name="ISYM">     2</i>
   <i name="SYMPREC">      0.00001000</i>
  </separator>
  <separator name="dos" >
   <i type="int" name="LORBIT">     0</i>
   <v name="RWIGS">     -1.00000000     -1.00000000</v>
   <i type="int" name="NEDOS">   301</i>
   <i name="EMIN">     10.00000000</i>
   <i name="EMAX">    -10.00000000</i>
   <i name="EFERMI">      0.00000000</i>
  </separator>
  <separator name="writing" >
   <i type="int" name="NWRITE">     2</i>
   <i type="logical" name="LWAVE"> F  </i>
   <i type="logical" name="LDOWNSAMPLE"> F  </i>
   <i type="logical" name="LCHARG"> T  </i>
   <i type="logical" name="LPARD"> F  </i>
   <i type="logical" name="LVTOT"> F  </i>
   <i type="logical" name="LVHAR"> F  </i>
   <i type="logical" name="LELF"> F  </i>
   <i type="logical" name="LOPTICS"> F  </i>
   <v name="STM">      0.00000000      0.00000000      0.00000000      0.00000000      0.00000000      0.00000000      0.00000000</v>
  </separator>
  <separator name="performance" >
   <i type="int" name="NPAR">     4</i>
   <i type="int" name="NSIM">     4</i>
   <i type="int" name="NBLK">    -1</i>
   <i type="logical" name="LPLANE"> T  </i>
   <i type="logical" name="LSCALAPACK"> T  </i>
   <i type="logical" name="LSCAAWARE"> F  </i>
   <i type="logical" name="LSCALU"> F  </i>
   <i type="logical" name="LASYNC"> F  </i>
   <i type="logical" name="LORBITALREAL"> F  </i>
  </separator>
  <separator name="miscellaneous" >
   <i type="int" name="IDIOT">     3</i>
   <i type="int" name="PHON_NSTRUCT">    -1</i>
   <i type="logical" name="LMUSIC"> F  </i>
   <v name="POMASS">     14.00100000     16.00000000</v>
   <v name="DARWINR">      0.00000000      0.00000000</v>
   <v name="DARWINV">      1.00000000      1.00000000</v>
   <i type="logical" name="LCORR"> T  </i>
  </separator>
  <i type="logical" name="GGA_COMPAT"> T  </i>
  <i type="logical" name="LBERRY"> F  </i>
  <i type="int" name="ICORELEVEL">     0</i>
  <i type="logical" name="LDAU"> F  </i>
  <i type="int" name="I_CONSTRAINED_M">     0</i>
  <separator name="electronic exchange-correlation" >
   <i type="string" name="GGA    ">PE</i>
   <i type="string" name="XC_C">1</i>
   <i type="int" name="VOSKOWN">     0</i>
   <i type="logical" name="LHFCALC"> F  </i>
   <i type="string" name="PRECFOCK"></i>
   <i type="logical" name="LSYMGRAD"> F  </i>
   <i type="logical" name="LHFONE"> F  </i>
   <i type="logical" name="LRHFCALC"> F  </i>
   <i type="logical" name="LTHOMAS"> F  </i>
   <i type="logical" name="LMODELHF"> F  </i>
   <i type="logical" name="LFOCKACE"> F  </i>
   <i name="ENCUT4O">     -1.00000000</i>
   <i type="int" name="EXXOEP">     0</i>
   <i type="int" name="FOURORBIT">     0</i>
   <i name="AEXX">      0.00000000</i>
   <i name="HFALPHA">      0.00000000</i>
   <i name="MCALPHA">      0.00000000</i>
   <i name="ALDAX">      1.00000000</i>
   <i name="AGGAX">      1.00000000</i>
   <i name="AMGGAX">      1.00000000</i>
   <i name="ALDAC">      1.00000000</i>
   <i name="AGGAC">      1.00000000</i>
   <i name="AMGGAC">      1.00000000</i>
   <i type="int" name="NKREDX">     1</i>
   <i type="int" name="NKREDY">     1</i>
   <i type="int" name="NKREDZ">     1</i>
   <i type="logical" name="SHIFTRED"> F  </i>
   <i type="logical" name="ODDONLY"> F  </i>
   <i type="logical" name="EVENONLY"> F  </i>
   <i type="int" name="LMAXFOCK">     0</i>
   <i type="int" name="NMAXFOCKAE">     0</i>
   <i type="logical" name="LFOCKAEDFT"> F  </i>
   <i name="HFSCREEN">      0.00000000</i>
   <i name="HFSCREENC">      0.00000000</i>
   <i type="int" name="NBANDSGWLOW">     0</i>
  </separator>
  <separator name="vdW DFT" >
   <i type="logical" name="LUSE_VDW"> F  </i>
   <i type="int" name="IVDW_NL">    -1</i>
   <i type="logical" name="LSPIN_VDW"> F  </i>
   <i name="ZAB_VDW">     -0.84910000</i>
   <i name="GAMMA_VDW">      1.39626340</i>
   <i name="ALPHA_VDW">      0.00000000</i>
   <i name="PARAM1">      0.12340000</i>
   <i name="PARAM2">      1.00000000</i>
   <i name="BPARAM">      6.30000000</i>
   <i name="CPARAM">      0.00930000</i>
  </separator>
  <separator name="model GW" >
   <i type="int" name="MODEL_GW">     0</i>
   <i name="MODEL_EPS0">      7.20000000</i>
   <i name="MODEL_ALPHA">      1.00000000</i>
  </separator>
  <separator name="linear response parameters" >
   <i type="logical" name="LEPSILON"> F  </i>
   <i type="logical" name="LRPA"> F  </i>
   <i type="logical" name="LNABLA"> F  </i>
   <i type="logical" name="LVEL"> F  </i>
   <i name="CSHIFT">      0.10000000</i>
   <i name="OMEGAMAX">     -1.00000000</i>
   <i name="DEG_THRESHOLD">      0.00200000</i>
   <i name="RTIME">     -0.10000000</i>
   <i name="WPLASMAI">      0.00000000</i>
   <v name="DFIELD">      0.00000000      0.00000000      0.00000000</v>
   <v name="WPLASMA">      0.00000000      0.00000000      0.00000000      0.00000000      0.00000000      0.00000000      0.00000000      0.00000000      0.00000000</v>
  </separator>
  <separator name="orbital magnetization" >
   <i type="logical" name="NUCIND"> F  </i>
   <v name="MAGPOS">      0.00000000      0.00000000      0.00000000</v>
   <i type="logical" name="LNICSALL"> T  </i>
   <i type="logical" name="ORBITALMAG"> F  </i>
   <i type="logical" name="LMAGBLOCH"> F  </i>
   <i type="logical" name="LCHIMAG"> F  </i>
   <i type="logical" name="LGAUGE"> T  </i>
   <i type="int" name="MAGATOM">     0</i>
   <v name="MAGDIPOL">      0.00000000      0.00000000      0.00000000</v>
   <v name="AVECCONST">      0.00000000      0.00000000      0.00000000</v>
  </separator>
  <separator name="response functions" >
   <i type="logical" name="LALL_IN_ONE"> F  </i>
   <i type="int" name="IALL_IN_ONE">    -1</i>
   <i type="int" name="NBANDS_WAVE">    -1</i>
   <i type="logical" name="LFINITE_TEMPERATURE"> F  </i>
   <i type="logical" name="LADDER"> F  </i>
   <i type="logical" name="LRPAFORCE"> F  </i>
   <i type="logical" name="LFXC"> F  </i>
   <i type="logical" name="LHARTREE"> T  </i>
   <i type="int" name="IBSE">     0</i>
   <v type="int" name="KPOINT">    -1     0     0     0</v>
   <i type="logical" name="LTCTC"> F  </i>
   <i type="logical" name="LTCTE"> F  </i>
   <i type="logical" name="LTETE"> F  </i>
   <i type="logical" name="LTRIPLET"> F  </i>
   <i type="logical" name="LFXCEPS"> F  </i>
   <i type="logical" name="LFXHEG"> F  </i>
   <i type="int" name="NATURALO">     2</i>
   <i type="logical" name="LHOLEGF"> F  </i>
   <i type="logical" name="L2ORDER"> F  </i>
   <i type="logical" name="LDMP1"> F  </i>
   <i type="logical" name="LMP2LT"> F  </i>
   <i type="logical" name="LSMP2LT"> F  </i>
   <i type="logical" name="LGWLF"> F  </i>
   <i name="ENCUTGW">     -1.60000002</i>
   <i name="ENCUTGWSOFT">     -1.60000002</i>
   <i name="ENCUTLF">     -1.00000000</i>
   <i type="logical" name="ESF_SPLINES"> F  </i>
   <i name="ESF_CONV">      0.01000000</i>
   <i type="int" name="ESF_NINTER">    15</i>
   <i type="int" name="LMAXMP2">    -1</i>
   <i name="SCISSOR">      0.00000000</i>
   <i type="int" name="NOMEGA">     0</i>
   <i type="int" name="NOMEGAR">     0</i>
   <i type="int" name="NBANDSGW">    -1</i>
   <i type="int" name="NBANDSO">    -1</i>
   <i type="int" name="NBANDSV">    -1</i>
   <i type="int" name="NELMGW">     1</i>
   <i type="int" name="NELMHF">     1</i>
   <i type="int" name="DIM">     3</i>
   <i type="int" name="IESPILON">     4</i>
   <i type="int" name="ANTIRES">     0</i>
   <i name="OMEGAMAX">    -30.00000000</i>
   <i name="OMEGAMIN">    -30.00000000</i>
   <i name="OMEGATL">   -200.00000000</i>
   <i type="int" name="OMEGAGRID">     0</i>
   <i name="CSHIFT">     -0.10000000</i>
   <i type="logical" name="LSELFENERGY"> F  </i>
   <i type="logical" name="LSPECTRAL"> F  </i>
   <i type="logical" name="LSPECTRALGW"> F  </i>
   <i type="logical" name="LSINGLES"> F  </i>
   <i type="logical" name="LFERMIGW"> F  </i>
   <i type="logical" name="ODDONLYGW"> F  </i>
   <i type="logical" name="EVENONLYGW"> F  </i>
   <i type="int" name="NKREDLFX">     1</i>
   <i type="int" name="NKREDLFY">     1</i>
   <i type="int" name="NKREDLFZ">     1</i>
   <i type="int" name="MAXMEM">  2800</i>
   <i type="int" name="TELESCOPE">     0</i>
   <i type="int" name="NTAUPAR">    -1</i>
   <i type="int" name="NOMEGAPAR">    -1</i>
   <i name="DAMP_NEWTON">      0.80000001</i>
   <i name="LAMBDA">      1.00000000</i>
  </separator>
  <separator name="External order field" >
   <i name="OFIELD_KAPPA">      0.00000000</i>
   <v name="OFIELD_K">      0.00000000      0.00000000      0.00000000</v>
   <i name="OFIELD_Q6_NEAR">      0.00000000</i>
   <i name="OFIELD_Q6_FAR">      0.00000000</i>
   <i name="OFIELD_A">      0.00000000</i>
  </separator>
  <separator name="optional k-points parameters" >
   <i type="int" name="KPOINTS_OPT_MODE">     1</i>
   <i type="logical" name="LKPOINTS_OPT"> F  </i>
  </separator>
 </parameters>
 <atominfo>
  <atoms>       2 </atoms>
  <types>       2 </types>
  <array name="atoms" >
   <dimension dim="1">ion</dimension>
   <field type="string">element</field>
   <field type="int">atomtype</field>
   <set>
    <rc><c>N </c><c>   1</c></rc>
    <rc><c>O </c><c>   2</c></rc>
   </set>
  </array>
  <array name="atomtypes" >
   <dimension dim="1">type</dimension>
   <field type="int">atomspertype</field>
   <field type="string">element</field>
   <field>mass</field>
   <field>valence</field>
   <field type="string">pseudopotential</field>
   <set>
    <rc><c>   1</c><c>N </c><c>     14.00100000</c><c>      5.00000000</c><c>  PAW_PBE N_s 07Sep2000                 </c></rc>
    <rc><c>   1</c><c>O </c><c>     16.00000000</c><c>      6.00000000</c><c>  PAW_PBE O_s 07Sep2000                 </c></rc>
   </set>
  </array>
 </atominfo>
 <structure name="initialpos" >
  <crystal>
   <varray name="basis" >
    <v>       2.00000000       0.00000000       0.00000000 </v>
    <v>       0.00000000       3.00000000       0.00000000 </v>
    <v>       0.00000000       0.00000000       4.00000000 </v>
   </varray>
   <i name="volume">     24.00000000 </i>
   <varray name="rec_basis" >
    <v>       0.50000000       0.00000000       0.00000000 </v>
    <v>       0.00000000       0.33333333       0.00000000 </v>
    <v>       0.00000000       0.00000000       0.25000000 </v>
   </varray>
  </crystal>
  <varray name="positions" >
   <v>       0.50000000       0.50000000       0.56044028 </v>
   <v>       0.50000000       0.50000000       0.26193626 </v>
  </varray>
  <varray name="selective"  type="logical" >
   <v type="logical" >  T  T  T </v>
   <v type="logical" >  T  T  T </v>
  </varray>
  <nose>
   <v>      -3.00000000       0.00000000       0.00010000       0.00010000 </v>
  </nose>
 </structure>
 <calculation>
  <scstep>
   <time name="dav">    0.02    0.02</time>
   <time name="total">    0.07    0.07</time>
   <energy>
    <i name="alphaZ">     15.03510525 </i>
    <i name="ewald">   -399.22983762 </i>
    <i name="hartreedc">   -260.96009246 </i>
    <i name="XCdc">     47.47598531 </i>
    <i name="pawpsdc">    548.82057942 </i>
    <i name="pawaedc">   -554.18101559 </i>
    <i name="eentropy">      0.00289895 </i>
    <i name="bandstr">    -12.41948998 </i>
    <i name="atom">    696.92349690 </i>
    <i name="e_fr_energy">     81.46763020 </i>
    <i name="e_wo_entrp">     81.46473124 </i>
    <i name="e_0_energy">     81.46666388 </i>
   </energy>
  </scstep>
  <scstep>
   <time name="dav">    0.02    0.02</time>
   <time name="total">    0.02    0.02</time>
   <energy>
    <i name="e_fr_energy">     -7.87058589 </i>
    <i name="e_wo_entrp">     -7.87348484 </i>
    <i name="e_0_energy">     -7.87155221 </i>
   </energy>
  </scstep>
  <scstep>
   <time name="dav">    0.02    0.02</time>
   <time name="total">    0.02    0.02</time>
   <energy>
    <i name="e_fr_energy">    -10.84254517 </i>
    <i name="e_wo_entrp">    -10.84544412 </i>
    <i name="e_0_energy">    -10.84351148 </i>
   </energy>
  </scstep>
  <scstep>
   <time name="dav">    0.02    0.02</time>
   <time name="total">    0.02    0.02</time>
   <energy>
    <i name="e_fr_energy">    -10.86101354 </i>
    <i name="e_wo_entrp">    -10.86391249 </i>
    <i name="e_0_energy">    -10.86197986 </i>
   </energy>
  </scstep>
  <scstep>
   <time name="dav">    0.02    0.02</time>
   <time name="total">    0.04    0.04</time>
   <energy>
    <i name="e_fr_energy">    -10.86121779 </i>
    <i name="e_wo_entrp">    -10.86411675 </i>
    <i name="e_0_energy">    -10.86218411 </i>
   </energy>
  </scstep>
  <scstep>
   <time name="diag">    0.00    0.00</time>
   <time name="diis">    0.01    0.01</time>
   <time name="orth">    0.00    0.00</time>
   <time name="total">    0.08    0.08</time>
   <energy>
    <i name="e_fr_energy">    -10.95290169 </i>
    <i name="e_wo_entrp">    -10.95580065 </i>
    <i name="e_0_energy">    -10.95386801 </i>
   </energy>
  </scstep>
  <scstep>
   <time name="diag">    0.00    0.00</time>
   <time name="diis">    0.01    0.01</time>
   <time name="orth">    0.00    0.00</time>
   <time name="total">    0.08    0.08</time>
   <energy>
    <i name="e_fr_energy">    -10.74831383 </i>
    <i name="e_wo_entrp">    -10.75121280 </i>
    <i name="e_0_energy">    -10.74928015 </i>
   </energy>
  </scstep>
  <scstep>
   <time name="diag">    0.00    0.00</time>
   <time name="diis">    0.01    0.01</time>
   <time name="orth">    0.00    0.00</time>
   <time name="total">    0.08    0.08</time>
   <energy>
    <i name="e_fr_energy">    -10.92323168 </i>
    <i name="e_wo_entrp">    -10.92613063 </i>
    <i name="e_0_energy">    -10.92419800 </i>
   </energy>
  </scstep>
  <scstep>
   <time name="diag">    0.00    0.00</time>
   <time name="diis">    0.01    0.01</time>
   <time name="orth">    0.00    0.00</time>
   <time name="total">    0.08    0.08</time>
   <energy>
    <i name="e_fr_energy">    -10.92952884 </i>
    <i name="e_wo_entrp">    -10.93242779 </i>
    <i name="e_0_energy">    -10.93049515 </i>
   </energy>
  </scstep>
  <scstep>
   <time name="diag">    0.00    0.00</time>
   <time name="diis">    0.01    0.01</time>
   <time name="orth">    0.00    0.00</time>
   <time name="total">    0.08    0.08</time>
   <energy>
    <i name="e_fr_energy">    -10.92787577 </i>
    <i name="e_wo_entrp">    -10.93077472 </i>
    <i name="e_0_energy">    -10.92884208 </i>
   </energy>
  </scstep>
  <scstep>
   <time name="diag">    0.00    0.00</time>
   <time name="diis">    0.01    0.01</time>
   <time name="orth">    0.00    0.00</time>
   <time name="total">    0.08    0.08</time>
   <energy>
    <i name="e_fr_energy">    -10.92764898 </i>
    <i name="e_wo_entrp">    -10.93054794 </i>
    <i name="e_0_energy">    -10.92861530 </i>
   </energy>
  </scstep>
  <scstep>
   <time name="diag">    0.00    0.00</time>
   <time name="diis">    0.01    0.01</time>
   <time name="orth">    0.00    0.00</time>
   <time name="total">    0.08    0.08</time>
   <energy>
    <i name="e_fr_energy">    -10.92764599 </i>
    <i name="e_wo_entrp">    -10.93054494 </i>
    <i name="e_0_energy">    -10.92861231 </i>
   </energy>
  </scstep>
  <scstep>
   <time name="diag">    0.00    0.00</time>
   <time name="diis">    0.01    0.01</time>
   <time name="orth">    0.00    0.00</time>
   <time name="total">    0.08    0.08</time>
   <energy>
    <i name="e_fr_energy">    -10.92764968 </i>
    <i name="e_wo_entrp">    -10.93054863 </i>
    <i name="e_0_energy">    -10.92861600 </i>
   </energy>
  </scstep>
  <scstep>
   <time name="diag">    0.00    0.00</time>
   <time name="diis">    0.01    0.01</time>
   <time name="orth">    0.00    0.00</time>
   <time name="total">    0.08    0.08</time>
   <energy>
    <i name="e_fr_energy">    -10.92765135 </i>
    <i name="e_wo_entrp">    -10.93055031 </i>
    <i name="e_0_energy">    -10.92861767 </i>
   </energy>
  </scstep>
  <scstep>
   <time name="diag">    0.00    0.00</time>
   <time name="diis">    0.01    0.01</time>
   <time name="orth">    0.00    0.00</time>
   <time name="total">    0.06    0.06</time>
   <energy>
    <i name="alphaZ">     15.03510525 </i>
    <i name="ewald">   -399.22983762 </i>
    <i name="hartreedc">   -265.45856046 </i>
    <i name="XCdc">     47.88061445 </i>
    <i name="pawpsdc">   3313.95851314 </i>
    <i name="pawaedc">  -3319.82430907 </i>
    <i name="eentropy">      0.00289895 </i>
    <i name="bandstr">   -100.21557324 </i>
    <i name="atom">    696.92349690 </i>
    <i name="e_fr_energy">    -10.92765169 </i>
    <i name="e_wo_entrp">    -10.93055064 </i>
    <i name="e_0_energy">    -10.92861801 </i>
   </energy>
  </scstep>
  <structure>
   <crystal>
    <varray name="basis" >
     <v>       2.00000000       0.00000000       0.00000000 </v>
     <v>       0.00000000       3.00000000       0.00000000 </v>
     <v>       0.00000000       0.00000000       4.00000000 </v>
    </varray>
    <i name="volume">     24.00000000 </i>
    <varray name="rec_basis" >
     <v>       0.50000000       0.00000000       0.00000000 </v>
     <v>       0.00000000       0.33333333       0.00000000 </v>
     <v>       0.00000000       0.00000000       0.25000000 </v>
    </varray>
   </crystal>
   <varray name="positions" >
    <v>       0.50000000       0.50000000       0.56044028 </v>
    <v>       0.50000000       0.50000000       0.26193626 </v>
   </varray>
  </structure>
  <varray name="forces" >
   <v>       0.00000000       0.00000000       4.72602759 </v>
   <v>       0.00000000       0.00000000      -4.72602759 </v>
  </varray>
  <varray name="stress" >
   <v>     488.46796624       0.00000000       0.00000000 </v>
   <v>       0.00000000      30.58536644       0.00000000 </v>
   <v>       0.00000000       0.00000000     192.13780916 </v>
  </varray>
  <energy>
   <i name="e_fr_energy">    -10.92765169 </i>
   <i name="e_wo_entrp">    -10.93055064 </i>
   <i name="e_0_energy">    -10.92861801 </i>
  </energy>
  <time name="totalsc">    1.61    1.61</time>
 </calculation>
 <calculation>
  <scstep>
   <time name="dav">    0.02    0.02</time>
   <time name="total">    0.09    0.09</time>
   <energy>
    <i name="alphaZ">     15.03510525 </i>
    <i name="ewald">   -490.18801383 </i>
    <i name="hartreedc">   -198.40056794 </i>
    <i name="XCdc">     46.58667826 </i>
    <i name="pawpsdc">   3314.07951213 </i>
    <i name="pawaedc">  -3319.94506167 </i>
    <i name="eentropy">      0.00289895 </i>
    <i name="bandstr">    -72.65173855 </i>
    <i name="atom">    696.92349690 </i>
    <i name="e_fr_energy">     -8.55769049 </i>
    <i name="e_wo_entrp">     -8.56058944 </i>
    <i name="e_0_energy">     -8.55865681 </i>
   </energy>
  </scstep>
  <scstep>
   <time name="diag">    0.00    0.00</time>
   <time name="diis">    0.01    0.01</time>
   <time name="orth">    0.00    0.00</time>
   <time name="total">    0.08    0.08</time>
   <energy>
    <i name="e_fr_energy">     -9.78589365 </i>
    <i name="e_wo_entrp">     -9.78879261 </i>
    <i name="e_0_energy">     -9.78685997 </i>
   </energy>
  </scstep>
  <scstep>
   <time name="diag">    0.00    0.00</time>
   <time name="diis">    0.01    0.01</time>
   <time name="orth">    0.00    0.00</time>
   <time name="total">    0.08    0.08</time>
   <energy>
    <i name="e_fr_energy">    -10.88124874 </i>
    <i name="e_wo_entrp">    -10.88414770 </i>
    <i name="e_0_energy">    -10.88221506 </i>
   </energy>
  </scstep>
  <scstep>
   <time name="diag">    0.00    0.00</time>
   <time name="diis">    0.01    0.01</time>
   <time name="orth">    0.00    0.00</time>
   <time name="total">    0.08    0.08</time>
   <energy>
    <i name="e_fr_energy">     -9.11599455 </i>
    <i name="e_wo_entrp">     -9.11889350 </i>
    <i name="e_0_energy">     -9.11696086 </i>
   </energy>
  </scstep>
  <scstep>
   <time name="diag">    0.00    0.00</time>
   <time name="diis">    0.01    0.01</time>
   <time name="orth">    0.00    0.00</time>
   <time name="total">    0.08    0.08</time>
   <energy>
    <i name="e_fr_energy">     -8.62718726 </i>
    <i name="e_wo_entrp">     -8.63008622 </i>
    <i name="e_0_energy">     -8.62815358 </i>
   </energy>
  </scstep>
  <scstep>
   <time name="diag">    0.00    0.00</time>
   <time name="diis">    0.01    0.01</time>
   <time name="orth">    0.00    0.00</time>
   <time name="total">    0.08    0.08</time>
   <energy>
    <i name="e_fr_energy">     -8.62419128 </i>
    <i name="e_wo_entrp">     -8.62709023 </i>
    <i name="e_0_energy">     -8.62515760 </i>
   </energy>
  </scstep>
  <scstep>
   <time name="diag">    0.00    0.00</time>
   <time name="diis">    0.01    0.01</time>
   <time name="orth">    0.00    0.00</time>
   <time name="total">    0.08    0.08</time>
   <energy>
    <i name="e_fr_energy">     -8.62941073 </i>
    <i name="e_wo_entrp">     -8.63230968 </i>
    <i name="e_0_energy">     -8.63037705 </i>
   </energy>
  </scstep>
  <scstep>
   <time name="diag">    0.00    0.00</time>
   <time name="diis">    0.01    0.01</time>
   <time name="orth">    0.00    0.00</time>
   <time name="total">    0.08    0.08</time>
   <energy>
    <i name="e_fr_energy">     -8.63843912 </i>
    <i name="e_wo_entrp">     -8.64133808 </i>
    <i name="e_0_energy">     -8.63940544 </i>
   </energy>
  </scstep>
  <scstep>
   <time name="diag">    0.00    0.00</time>
   <time name="diis">    0.01    0.01</time>
   <time name="orth">    0.00    0.00</time>
   <time name="total">    0.08    0.08</time>
   <energy>
    <i name="e_fr_energy">     -8.64281713 </i>
    <i name="e_wo_entrp">     -8.64571608 </i>
    <i name="e_0_energy">     -8.64378344 </i>
   </energy>
  </scstep>
  <scstep>
   <time name="diag">    0.00    0.00</time>
   <time name="diis">    0.01    0.01</time>
   <time name="orth">    0.00    0.00</time>
   <time name="total">    0.08    0.08</time>
   <energy>
    <i name="e_fr_energy">     -8.66334777 </i>
    <i name="e_wo_entrp">     -8.66624673 </i>
    <i name="e_0_energy">     -8.66431409 </i>
   </energy>
  </scstep>
  <scstep>
   <time name="diag">    0.00    0.00</time>
   <time name="diis">    0.01    0.01</time>
   <time name="orth">    0.00    0.00</time>
   <time name="total">    0.08    0.08</time>
   <energy>
    <i name="e_fr_energy">     -8.65894444 </i>
    <i name="e_wo_entrp">     -8.66184339 </i>
    <i name="e_0_energy">     -8.65991075 </i>
   </energy>
  </scstep>
  <scstep>
   <time name="diag">    0.00    0.00</time>
   <time name="diis">    0.01    0.01</time>
   <time name="orth">    0.00    0.00</time>
   <time name="total">    0.08    0.08</time>
   <energy>
    <i name="e_fr_energy">     -8.66328940 </i>
    <i name="e_wo_entrp">     -8.66618835 </i>
    <i name="e_0_energy">     -8.66425572 </i>
   </energy>
  </scstep>
  <scstep>
   <time name="diag">    0.00    0.00</time>
   <time name="diis">    0.01    0.01</time>
   <time name="orth">    0.00    0.00</time>
   <time name="total">    0.08    0.08</time>
   <energy>
    <i name="e_fr_energy">     -8.66307703 </i>
    <i name="e_wo_entrp">     -8.66597599 </i>
    <i name="e_0_energy">     -8.66404335 </i>
   </energy>
  </scstep>
  <scstep>
   <time name="diag">    0.00    0.00</time>
   <time name="diis">    0.01    0.01</time>
   <time name="orth">    0.00    0.00</time>
   <time name="total">    0.08    0.08</time>
   <energy>
    <i name="e_fr_energy">     -8.66330739 </i>
    <i name="e_wo_entrp">     -8.66620635 </i>
    <i name="e_0_energy">     -8.66427371 </i>
   </energy>
  </scstep>
  <scstep>
   <time name="diag">    0.00    0.00</time>
   <time name="diis">    0.01    0.01</time>
   <time name="orth">    0.00    0.00</time>
   <time name="total">    0.08    0.08</time>
   <energy>
    <i name="e_fr_energy">     -8.66335213 </i>
    <i name="e_wo_entrp">     -8.66625108 </i>
    <i name="e_0_energy">     -8.66431845 </i>
   </energy>
  </scstep>
  <scstep>
   <time name="diag">    0.01    0.01</time>
   <time name="diis">    0.01    0.01</time>
   <time name="orth">    0.00    0.00</time>
   <time name="total">    0.08    0.08</time>
   <energy>
    <i name="e_fr_energy">     -8.66335594 </i>
    <i name="e_wo_entrp">     -8.66625489 </i>
    <i name="e_0_energy">     -8.66432226 </i>
   </energy>
  </scstep>
  <scstep>
   <time name="diag">    0.00    0.00</time>
   <time name="diis">    0.01    0.01</time>
   <time name="orth">    0.00    0.00</time>
   <time name="total">    0.06    0.06</time>
   <energy>
    <i name="alphaZ">     15.03510525 </i>
    <i name="ewald">   -490.18801383 </i>
    <i name="hartreedc">   -189.69067901 </i>
    <i name="XCdc">     46.00625380 </i>
    <i name="pawpsdc">   1143.45599087 </i>
    <i name="pawaedc">  -1148.43661292 </i>
    <i name="eentropy">      0.00289895 </i>
    <i name="bandstr">    -81.77179667 </i>
    <i name="atom">    696.92349690 </i>
    <i name="e_fr_energy">     -8.66335666 </i>
    <i name="e_wo_entrp">     -8.66625561 </i>
    <i name="e_0_energy">     -8.66432297 </i>
   </energy>
  </scstep>
  <structure>
   <crystal>
    <varray name="basis" >
     <v>       2.00000000       0.00000000       0.00000000 </v>
     <v>       0.00000000       3.00000000       0.00000000 </v>
     <v>       0.00000000       0.00000000       4.00000000 </v>
    </varray>
    <i name="volume">     24.00000000 </i>
    <varray name="rec_basis" >
     <v>       0.50000000       0.00000000       0.00000000 </v>
     <v>       0.00000000       0.33333333       0.00000000 </v>
     <v>       0.00000000       0.00000000       0.25000000 </v>
    </varray>
   </crystal>
   <varray name="positions" >
    <v>       0.50000000       0.50000000       0.61743931 </v>
    <v>       0.50000000       0.50000000       0.20493723 </v>
   </varray>
  </structure>
  <varray name="forces" >
   <v>       0.00000000      -0.00000000      -5.28850820 </v>
   <v>       0.00000000       0.00000000       5.28850820 </v>
  </varray>
  <varray name="stress" >
   <v>     596.48202407       0.00000000       0.00000000 </v>
   <v>       0.00000000      35.69005747       0.00000000 </v>
   <v>       0.00000000       0.00000000   -1305.24886468 </v>
  </varray>
  <energy>
   <i name="e_fr_energy">     -8.66335666 </i>
   <i name="e_wo_entrp">     -8.66625561 </i>
   <i name="e_0_energy">     -8.66432297 </i>
  </energy>
  <time name="totalsc">    1.93    1.93</time>
 </calculation>
 <calculation>
  <scstep>
   <time name="dav">    0.02    0.02</time>
   <time name="total">    0.09    0.09</time>
   <energy>
    <i name="alphaZ">     15.03510525 </i>
    <i name="ewald">   -453.18861420 </i>
    <i name="hartreedc">   -219.15449613 </i>
    <i name="XCdc">     46.56440874 </i>
    <i name="pawpsdc">   1143.55228003 </i>
    <i name="pawaedc">  -1148.53295630 </i>
    <i name="eentropy">      0.00289895 </i>
    <i name="bandstr">    -91.10048038 </i>
    <i name="atom">    696.92349690 </i>
    <i name="e_fr_energy">     -9.89835714 </i>
    <i name="e_wo_entrp">     -9.90125609 </i>
    <i name="e_0_energy">     -9.89932346 </i>
   </energy>
  </scstep>
  <scstep>
   <time name="diag">    0.00    0.00</time>
   <time name="diis">    0.01    0.01</time>
   <time name="orth">    0.00    0.00</time>
   <time name="total">    0.08    0.08</time>
   <energy>
    <i name="e_fr_energy">    -10.25744529 </i>
    <i name="e_wo_entrp">    -10.26034424 </i>
    <i name="e_0_energy">    -10.25841161 </i>
   </energy>
  </scstep>
  <scstep>
   <time name="diag">    0.00    0.00</time>
   <time name="diis">    0.01    0.01</time>
   <time name="orth">    0.00    0.00</time>
   <time name="total">    0.08    0.08</time>
   <energy>
    <i name="e_fr_energy">    -10.42550790 </i>
    <i name="e_wo_entrp">    -10.42840685 </i>
    <i name="e_0_energy">    -10.42647422 </i>
   </energy>
  </scstep>
  <scstep>
   <time name="diag">    0.00    0.00</time>
   <time name="diis">    0.01    0.01</time>
   <time name="orth">    0.00    0.00</time>
   <time name="total">    0.08    0.08</time>
   <energy>
    <i name="e_fr_energy">    -10.30562061 </i>
    <i name="e_wo_entrp">    -10.30851956 </i>
    <i name="e_0_energy">    -10.30658692 </i>
   </energy>
  </scstep>
  <scstep>
   <time name="diag">    0.00    0.00</time>
   <time name="diis">    0.01    0.01</time>
   <time name="orth">    0.00    0.00</time>
   <time name="total">    0.08    0.08</time>
   <energy>
    <i name="e_fr_energy">    -10.29736203 </i>
    <i name="e_wo_entrp">    -10.30026098 </i>
    <i name="e_0_energy">    -10.29832835 </i>
   </energy>
  </scstep>
  <scstep>
   <time name="diag">    0.00    0.00</time>
   <time name="diis">    0.01    0.01</time>
   <time name="orth">    0.00    0.00</time>
   <time name="total">    0.08    0.08</time>
   <energy>
    <i name="e_fr_energy">    -10.30061579 </i>
    <i name="e_wo_entrp">    -10.30351474 </i>
    <i name="e_0_energy">    -10.30158210 </i>
   </energy>
  </scstep>
  <scstep>
   <time name="diag">    0.00    0.00</time>
   <time name="diis">    0.01    0.01</time>
   <time name="orth">    0.00    0.00</time>
   <time name="total">    0.08    0.08</time>
   <energy>
    <i name="e_fr_energy">    -10.30071334 </i>
    <i name="e_wo_entrp">    -10.30361229 </i>
    <i name="e_0_energy">    -10.30167966 </i>
   </energy>
  </scstep>
  <scstep>
   <time name="diag">    0.00    0.00</time>
   <time name="diis">    0.01    0.01</time>
   <time name="orth">    0.00    0.00</time>
   <time name="total">    0.08    0.08</time>
   <energy>
    <i name="e_fr_energy">    -10.30073091 </i>
    <i name="e_wo_entrp">    -10.30362986 </i>
    <i name="e_0_energy">    -10.30169723 </i>
   </energy>
  </scstep>
  <scstep>
   <time name="diag">    0.00    0.00</time>
   <time name="diis">    0.01    0.01</time>
   <time name="orth">    0.00    0.00</time>
   <time name="total">    0.08    0.08</time>
   <energy>
    <i name="e_fr_energy">    -10.30073189 </i>
    <i name="e_wo_entrp">    -10.30363084 </i>
    <i name="e_0_energy">    -10.30169820 </i>
   </energy>
  </scstep>
  <scstep>
   <time name="diag">    0.00    0.00</time>
   <time name="diis">    0.01    0.01</time>
   <time name="orth">    0.00    0.00</time>
   <time name="total">    0.06    0.06</time>
   <energy>
    <i name="alphaZ">     15.03510525 </i>
    <i name="ewald">   -453.18861420 </i>
    <i name="hartreedc">   -221.74048997 </i>
    <i name="XCdc">     46.61772002 </i>
    <i name="pawpsdc">   1799.71613097 </i>
    <i name="pawaedc">  -1804.93241690 </i>
    <i name="eentropy">      0.00289895 </i>
    <i name="bandstr">    -88.73456352 </i>
    <i name="atom">    696.92349690 </i>
    <i name="e_fr_energy">    -10.30073249 </i>
    <i name="e_wo_entrp">    -10.30363145 </i>
    <i name="e_0_energy">    -10.30169881 </i>
   </energy>
  </scstep>
  <structure>
   <crystal>
    <varray name="basis" >
     <v>       2.00000000       0.00000000       0.00000000 </v>
     <v>       0.00000000       3.00000000       0.00000000 </v>
     <v>       0.00000000       0.00000000       4.00000000 </v>
    </varray>
    <i name="volume">     24.00000000 </i>
    <varray name="rec_basis" >
     <v>       0.50000000       0.00000000       0.00000000 </v>
     <v>       0.00000000       0.33333333       0.00000000 </v>
     <v>       0.00000000       0.00000000       0.25000000 </v>
    </varray>
   </crystal>
   <varray name="positions" >
    <v>       0.50000000       0.50000000       0.58733908 </v>
    <v>       0.50000000       0.50000000       0.23503746 </v>
   </varray>
  </structure>
  <varray name="forces" >
   <v>       0.00000000       0.00000000      -6.93851970 </v>
   <v>       0.00000000      -0.00000000       6.93851970 </v>
  </varray>
  <varray name="stress" >
   <v>     544.34233573       0.00000000       0.00000000 </v>
   <v>       0.00000000      30.61764331       0.00000000 </v>
   <v>       0.00000000       0.00000000   -1057.49456888 </v>
  </varray>
  <energy>
   <i name="e_fr_energy">    -10.30073249 </i>
   <i name="e_wo_entrp">    -10.30363145 </i>
   <i name="e_0_energy">    -10.30169881 </i>
  </energy>
  <time name="totalsc">    1.35    1.35</time>
 </calculation>
 <calculation>
  <scstep>
   <time name="dav">    0.02    0.02</time>
   <time name="total">    0.09    0.09</time>
   <energy>
    <i name="alphaZ">     15.03510525 </i>
    <i name="ewald">   -423.87233943 </i>
    <i name="hartreedc">   -243.36781517 </i>
    <i name="XCdc">     47.06477982 </i>
    <i name="pawpsdc">   1799.94501762 </i>
    <i name="pawaedc">  -1805.16123275 </i>
    <i name="eentropy">      0.00289895 </i>
    <i name="bandstr">    -97.48951700 </i>
    <i name="atom">    696.92349690 </i>
    <i name="e_fr_energy">    -10.91960580 </i>
    <i name="e_wo_entrp">    -10.92250475 </i>
    <i name="e_0_energy">    -10.92057212 </i>
   </energy>
  </scstep>
  <scstep>
   <time name="diag">    0.00    0.00</time>
   <time name="diis">    0.01    0.01</time>
   <time name="orth">    0.00    0.00</time>
   <time name="total">    0.08    0.08</time>
   <energy>
    <i name="e_fr_energy">    -10.98315823 </i>
    <i name="e_wo_entrp">    -10.98605718 </i>
    <i name="e_0_energy">    -10.98412455 </i>
   </energy>
  </scstep>
  <scstep>
   <time name="diag">    0.00    0.00</time>
   <time name="diis">    0.01    0.01</time>
   <time name="orth">    0.00    0.00</time>
   <time name="total">    0.08    0.08</time>
   <energy>
    <i name="e_fr_energy">    -11.01188586 </i>
    <i name="e_wo_entrp">    -11.01478482 </i>
    <i name="e_0_energy">    -11.01285218 </i>
   </energy>
  </scstep>
  <scstep>
   <time name="diag">    0.00    0.00</time>
   <time name="diis">    0.01    0.01</time>
   <time name="orth">    0.00    0.00</time>
   <time name="total">    0.08    0.08</time>
   <energy>
    <i name="e_fr_energy">    -10.98894130 </i>
    <i name="e_wo_entrp">    -10.99184025 </i>
    <i name="e_0_energy">    -10.98990762 </i>
   </energy>
  </scstep>
  <scstep>
   <time name="diag">    0.00    0.00</time>
   <time name="diis">    0.01    0.01</time>
   <time name="orth">    0.00    0.00</time>
   <time name="total">    0.08    0.08</time>
   <energy>
    <i name="e_fr_energy">    -10.97902416 </i>
    <i name="e_wo_entrp">    -10.98192311 </i>
    <i name="e_0_energy">    -10.97999047 </i>
   </energy>
  </scstep>
  <scstep>
   <time name="diag">    0.00    0.00</time>
   <time name="diis">    0.01    0.01</time>
   <time name="orth">    0.00    0.00</time>
   <time name="total">    0.08    0.08</time>
   <energy>
    <i name="e_fr_energy">    -10.97941158 </i>
    <i name="e_wo_entrp">    -10.98231053 </i>
    <i name="e_0_energy">    -10.98037790 </i>
   </energy>
  </scstep>
  <scstep>
   <time name="diag">    0.00    0.00</time>
   <time name="diis">    0.01    0.01</time>
   <time name="orth">    0.00    0.00</time>
   <time name="total">    0.08    0.08</time>
   <energy>
    <i name="e_fr_energy">    -10.97940294 </i>
    <i name="e_wo_entrp">    -10.98230189 </i>
    <i name="e_0_energy">    -10.98036926 </i>
   </energy>
  </scstep>
  <scstep>
   <time name="diag">    0.00    0.00</time>
   <time name="diis">    0.01    0.01</time>
   <time name="orth">    0.00    0.00</time>
   <time name="total">    0.09    0.09</time>
   <energy>
    <i name="e_fr_energy">    -10.97940242 </i>
    <i name="e_wo_entrp">    -10.98230137 </i>
    <i name="e_0_energy">    -10.98036874 </i>
   </energy>
  </scstep>
  <scstep>
   <time name="diag">    0.00    0.00</time>
   <time name="diis">    0.01    0.01</time>
   <time name="orth">    0.00    0.00</time>
   <time name="total">    0.07    0.07</time>
   <energy>
    <i name="alphaZ">     15.03510525 </i>
    <i name="ewald">   -423.87233943 </i>
    <i name="hartreedc">   -246.03474935 </i>
    <i name="XCdc">     47.29969491 </i>
    <i name="pawpsdc">   2572.76942609 </i>
    <i name="pawaedc">  -2578.29794169 </i>
    <i name="eentropy">      0.00289895 </i>
    <i name="bandstr">    -94.80499324 </i>
    <i name="atom">    696.92349690 </i>
    <i name="e_fr_energy">    -10.97940160 </i>
    <i name="e_wo_entrp">    -10.98230055 </i>
    <i name="e_0_energy">    -10.98036792 </i>
   </energy>
  </scstep>
  <structure>
   <crystal>
    <varray name="basis" >
     <v>       2.00000000       0.00000000       0.00000000 </v>
     <v>       0.00000000       3.00000000       0.00000000 </v>
     <v>       0.00000000       0.00000000       4.00000000 </v>
    </varray>
    <i name="volume">     24.00000000 </i>
    <varray name="rec_basis" >
     <v>       0.50000000       0.00000000       0.00000000 </v>
     <v>       0.00000000       0.33333333       0.00000000 </v>
     <v>       0.00000000       0.00000000       0.25000000 </v>
    </varray>
   </crystal>
   <varray name="positions" >
    <v>       0.50000000       0.50000000       0.57133864 </v>
    <v>       0.50000000       0.50000000       0.25103790 </v>
   </varray>
  </structure>
  <varray name="forces" >
   <v>       0.00000000       0.00000000      -2.71005908 </v>
   <v>       0.00000000      -0.00000000       2.71005908 </v>
  </varray>
  <varray name="stress" >
   <v>     510.86489470       0.00000000       0.00000000 </v>
   <v>       0.00000000      30.49680789       0.00000000 </v>
   <v>       0.00000000       0.00000000    -493.65654217 </v>
  </varray>
  <energy>
   <i name="e_fr_energy">    -10.97940160 </i>
   <i name="e_wo_entrp">    -10.98230055 </i>
   <i name="e_0_energy">    -10.98036792 </i>
  </energy>
  <time name="totalsc">    1.30    1.30</time>
 </calculation>
 <calculation>
  <scstep>
   <time name="dav">    0.02    0.02</time>
   <time name="total">    0.09    0.09</time>
   <energy>
    <i name="alphaZ">     15.03510525 </i>
    <i name="ewald">   -415.36846767 </i>
    <i name="hartreedc">   -252.02240815 </i>
    <i name="XCdc">     47.43002241 </i>
    <i name="pawpsdc">   2573.94237684 </i>
    <i name="pawaedc">  -2579.47164855 </i>
    <i name="eentropy">      0.00289895 </i>
    <i name="bandstr">    -97.50182240 </i>
    <i name="atom">    696.92349690 </i>
    <i name="e_fr_energy">    -11.03044643 </i>
    <i name="e_wo_entrp">    -11.03334538 </i>
    <i name="e_0_energy">    -11.03141274 </i>
   </energy>
  </scstep>
  <scstep>
   <time name="diag">    0.00    0.00</time>
   <time name="diis">    0.01    0.01</time>
   <time name="orth">    0.00    0.00</time>
   <time name="total">    0.08    0.08</time>
   <energy>
    <i name="e_fr_energy">    -11.03338100 </i>
    <i name="e_wo_entrp">    -11.03627995 </i>
    <i name="e_0_energy">    -11.03434732 </i>
   </energy>
  </scstep>
  <scstep>
   <time name="diag">    0.00    0.00</time>
   <time name="diis">    0.01    0.01</time>
   <time name="orth">    0.00    0.00</time>
   <time name="total">    0.08    0.08</time>
   <energy>
    <i name="e_fr_energy">    -11.03433457 </i>
    <i name="e_wo_entrp">    -11.03723352 </i>
    <i name="e_0_energy">    -11.03530089 </i>
   </energy>
  </scstep>
  <scstep>
   <time name="diag">    0.00    0.00</time>
   <time name="diis">    0.01    0.01</time>
   <time name="orth">    0.00    0.00</time>
   <time name="total">    0.08    0.08</time>
   <energy>
    <i name="e_fr_energy">    -11.03377208 </i>
    <i name="e_wo_entrp">    -11.03667103 </i>
    <i name="e_0_energy">    -11.03473839 </i>
   </energy>
  </scstep>
  <scstep>
   <time name="diag">    0.00    0.00</time>
   <time name="diis">    0.01    0.01</time>
   <time name="orth">    0.00    0.00</time>
   <time name="total">    0.08    0.08</time>
   <energy>
    <i name="e_fr_energy">    -11.03306875 </i>
    <i name="e_wo_entrp">    -11.03596770 </i>
    <i name="e_0_energy">    -11.03403507 </i>
   </energy>
  </scstep>
  <scstep>
   <time name="diag">    0.00    0.00</time>
   <time name="diis">    0.01    0.01</time>
   <time name="orth">    0.00    0.00</time>
   <time name="total">    0.08    0.08</time>
   <energy>
    <i name="e_fr_energy">    -11.03306936 </i>
    <i name="e_wo_entrp">    -11.03596831 </i>
    <i name="e_0_energy">    -11.03403568 </i>
   </energy>
  </scstep>
  <scstep>
   <time name="diag">    0.00    0.00</time>
   <time name="diis">    0.01    0.01</time>
   <time name="orth">    0.00    0.00</time>
   <time name="total">    0.08    0.08</time>
   <energy>
    <i name="e_fr_energy">    -11.03306825 </i>
    <i name="e_wo_entrp">    -11.03596721 </i>
    <i name="e_0_energy">    -11.03403457 </i>
   </energy>
  </scstep>
  <scstep>
   <time name="diag">    0.00    0.00</time>
   <time name="diis">    0.01    0.01</time>
   <time name="orth">    0.00    0.00</time>
   <time name="total">    0.06    0.06</time>
   <energy>
    <i name="alphaZ">     15.03510525 </i>
    <i name="ewald">   -415.36846767 </i>
    <i name="hartreedc">   -252.84079289 </i>
    <i name="XCdc">     47.50000754 </i>
    <i name="pawpsdc">   2824.62715787 </i>
    <i name="pawaedc">  -2830.26379694 </i>
    <i name="eentropy">      0.00289895 </i>
    <i name="bandstr">    -96.64867714 </i>
    <i name="atom">    696.92349690 </i>
    <i name="e_fr_energy">    -11.03306812 </i>
    <i name="e_wo_entrp">    -11.03596707 </i>
    <i name="e_0_energy">    -11.03403444 </i>
   </energy>
  </scstep>
  <structure>
   <crystal>
    <varray name="basis" >
     <v>       2.00000000       0.00000000       0.00000000 </v>
     <v>       0.00000000       3.00000000       0.00000000 </v>
     <v>       0.00000000       0.00000000       4.00000000 </v>
    </varray>
    <i name="volume">     24.00000000 </i>
    <varray name="rec_basis" >
     <v>       0.50000000       0.00000000       0.00000000 </v>
     <v>       0.00000000       0.33333333       0.00000000 </v>
     <v>       0.00000000       0.00000000       0.25000000 </v>
    </varray>
   </crystal>
   <varray name="positions" >
    <v>       0.50000000       0.50000000       0.56736677 </v>
    <v>       0.50000000       0.50000000       0.25500977 </v>
   </varray>
  </structure>
  <varray name="forces" >
   <v>       0.00000000      -0.00000000      -0.56878522 </v>
   <v>       0.00000000       0.00000000       0.56878522 </v>
  </varray>
  <varray name="stress" >
   <v>     502.34002434       0.00000000       0.00000000 </v>
   <v>       0.00000000      30.46278833       0.00000000 </v>
   <v>       0.00000000       0.00000000    -278.91129264 </v>
  </varray>
  <energy>
   <i name="e_fr_energy">    -11.03306812 </i>
   <i name="e_wo_entrp">    -11.03596707 </i>
   <i name="e_0_energy">    -11.03403444 </i>
  </energy>
  <time name="totalsc">    1.20    1.20</time>
 </calculation>
 <calculation>
  <scstep>
   <time name="dav">    0.02    0.02</time>
   <time name="total">    0.09    0.09</time>
   <energy>
    <i name="alphaZ">     15.03510525 </i>
    <i name="ewald">   -413.27424896 </i>
    <i name="hartreedc">   -254.29837088 </i>
    <i name="XCdc">     47.53227551 </i>
    <i name="pawpsdc">   2825.33249692 </i>
    <i name="pawaedc">  -2830.96981986 </i>
    <i name="eentropy">      0.00289895 </i>
    <i name="bandstr">    -97.31883654 </i>
    <i name="atom">    696.92349690 </i>
    <i name="e_fr_energy">    -11.03500270 </i>
    <i name="e_wo_entrp">    -11.03790165 </i>
    <i name="e_0_energy">    -11.03596902 </i>
   </energy>
  </scstep>
  <scstep>
   <time name="diag">    0.00    0.00</time>
   <time name="diis">    0.01    0.01</time>
   <time name="orth">    0.00    0.00</time>
   <time name="total">    0.08    0.08</time>
   <energy>
    <i name="e_fr_energy">    -11.03512879 </i>
    <i name="e_wo_entrp">    -11.03802774 </i>
    <i name="e_0_energy">    -11.03609511 </i>
   </energy>
  </scstep>
  <scstep>
   <time name="diag">    0.00    0.00</time>
   <time name="diis">    0.01    0.01</time>
   <time name="orth">    0.00    0.00</time>
   <time name="total">    0.08    0.08</time>
   <energy>
    <i name="e_fr_energy">    -11.03515632 </i>
    <i name="e_wo_entrp">    -11.03805528 </i>
    <i name="e_0_energy">    -11.03612264 </i>
   </energy>
  </scstep>
  <scstep>
   <time name="diag">    0.00    0.00</time>
   <time name="diis">    0.01    0.01</time>
   <time name="orth">    0.00    0.00</time>
   <time name="total">    0.08    0.08</time>
   <energy>
    <i name="e_fr_energy">    -11.03514809 </i>
    <i name="e_wo_entrp">    -11.03804704 </i>
    <i name="e_0_energy">    -11.03611441 </i>
   </energy>
  </scstep>
  <scstep>
   <time name="diag">    0.00    0.00</time>
   <time name="diis">    0.01    0.01</time>
   <time name="orth">    0.00    0.00</time>
   <time name="total">    0.08    0.08</time>
   <energy>
    <i name="e_fr_energy">    -11.03510738 </i>
    <i name="e_wo_entrp">    -11.03800633 </i>
    <i name="e_0_energy">    -11.03607369 </i>
   </energy>
  </scstep>
  <scstep>
   <time name="diag">    0.00    0.00</time>
   <time name="diis">    0.01    0.01</time>
   <time name="orth">    0.00    0.00</time>
   <time name="total">    0.06    0.06</time>
   <energy>
    <i name="alphaZ">     15.03510525 </i>
    <i name="ewald">   -413.27424896 </i>
    <i name="hartreedc">   -254.50780853 </i>
    <i name="XCdc">     47.55006499 </i>
    <i name="pawpsdc">   2888.28574612 </i>
    <i name="pawaedc">  -2893.95109479 </i>
    <i name="eentropy">      0.00289895 </i>
    <i name="bandstr">    -97.09926729 </i>
    <i name="atom">    696.92349690 </i>
    <i name="e_fr_energy">    -11.03510735 </i>
    <i name="e_wo_entrp">    -11.03800630 </i>
    <i name="e_0_energy">    -11.03607366 </i>
   </energy>
  </scstep>
  <structure>
   <crystal>
    <varray name="basis" >
     <v>       2.00000000       0.00000000       0.00000000 </v>
     <v>       0.00000000       3.00000000       0.00000000 </v>
     <v>       0.00000000       0.00000000       4.00000000 </v>
    </varray>
    <i name="volume">     24.00000000 </i>
    <varray name="rec_basis" >
     <v>       0.50000000       0.00000000       0.00000000 </v>
     <v>       0.00000000       0.33333333       0.00000000 </v>
     <v>       0.00000000       0.00000000       0.25000000 </v>
    </varray>
   </crystal>
   <varray name="positions" >
    <v>       0.50000000       0.50000000       0.56642506 </v>
    <v>       0.50000000       0.50000000       0.25595148 </v>
   </varray>
  </structure>
  <varray name="forces" >
   <v>       0.00000000       0.00000000       0.03515525 </v>
   <v>       0.00000000       0.00000000      -0.03515525 </v>
  </varray>
  <varray name="stress" >
   <v>     500.08433045       0.00000000       0.00000000 </v>
   <v>       0.00000000      30.05067387       0.00000000 </v>
   <v>       0.00000000       0.00000000    -222.26226342 </v>
  </varray>
  <energy>
   <i name="e_fr_energy">    -11.03510735 </i>
   <i name="e_wo_entrp">    -11.03800630 </i>
   <i name="e_0_energy">    -11.03607366 </i>
  </energy>
  <time name="totalsc">    1.03    1.03</time>
 </calculation>
 <calculation>
  <scstep>
   <time name="dav">    0.02    0.02</time>
   <time name="total">    0.08    0.08</time>
   <energy>
    <i name="alphaZ">     15.03510525 </i>
    <i name="ewald">   -413.39699071 </i>
    <i name="hartreedc">   -254.41846580 </i>
    <i name="XCdc">     47.54782743 </i>
    <i name="pawpsdc">   2888.36578285 </i>
    <i name="pawaedc">  -2894.03093905 </i>
    <i name="eentropy">      0.00289895 </i>
    <i name="bandstr">    -97.06382975 </i>
    <i name="atom">    696.92349690 </i>
    <i name="e_fr_energy">    -11.03511393 </i>
    <i name="e_wo_entrp">    -11.03801289 </i>
    <i name="e_0_energy">    -11.03608025 </i>
   </energy>
  </scstep>
  <scstep>
   <time name="diag">    0.00    0.00</time>
   <time name="diis">    0.01    0.01</time>
   <time name="orth">    0.00    0.00</time>
   <time name="total">    0.08    0.08</time>
   <energy>
    <i name="e_fr_energy">    -11.03511436 </i>
    <i name="e_wo_entrp">    -11.03801332 </i>
    <i name="e_0_energy">    -11.03608068 </i>
   </energy>
  </scstep>
  <scstep>
   <time name="diag">    0.00    0.00</time>
   <time name="diis">    0.01    0.01</time>
   <time name="orth">    0.00    0.00</time>
   <time name="total">    0.06    0.06</time>
   <energy>
    <i name="alphaZ">     15.03510525 </i>
    <i name="ewald">   -413.39699071 </i>
    <i name="hartreedc">   -254.40522448 </i>
    <i name="XCdc">     47.54674989 </i>
    <i name="pawpsdc">   2885.73358775 </i>
    <i name="pawaedc">  -2891.39724375 </i>
    <i name="eentropy">      0.00289895 </i>
    <i name="bandstr">    -97.07749435 </i>
    <i name="atom">    696.92349690 </i>
    <i name="e_fr_energy">    -11.03511454 </i>
    <i name="e_wo_entrp">    -11.03801349 </i>
    <i name="e_0_energy">    -11.03608086 </i>
   </energy>
  </scstep>
  <structure>
   <crystal>
    <varray name="basis" >
     <v>       2.00000000       0.00000000       0.00000000 </v>
     <v>       0.00000000       3.00000000       0.00000000 </v>
     <v>       0.00000000       0.00000000       4.00000000 </v>
    </varray>
    <i name="volume">     24.00000000 </i>
    <varray name="rec_basis" >
     <v>       0.50000000       0.00000000       0.00000000 </v>
     <v>       0.00000000       0.33333333       0.00000000 </v>
     <v>       0.00000000       0.00000000       0.25000000 </v>
    </varray>
   </crystal>
   <varray name="positions" >
    <v>       0.50000000       0.50000000       0.56647988 </v>
    <v>       0.50000000       0.50000000       0.25589667 </v>
   </varray>
  </structure>
  <varray name="forces" >
   <v>       0.00000000      -0.00000000      -0.00207678 </v>
   <v>       0.00000000       0.00000000       0.00207678 </v>
  </varray>
  <varray name="stress" >
   <v>     500.66227732       0.00000000       0.00000000 </v>
   <v>       0.00000000      30.62898891       0.00000000 </v>
   <v>       0.00000000       0.00000000    -225.07107909 </v>
  </varray>
  <energy>
   <i name="e_fr_energy">    -11.03511454 </i>
   <i name="e_wo_entrp">    -11.03801349 </i>
   <i name="e_0_energy">    -11.03608086 </i>
  </energy>
  <time name="totalsc">    0.79    0.79</time>
  <eigenvalues>
   <array>
    <dimension dim="1">band</dimension>
    <dimension dim="2">kpoint</dimension>
    <dimension dim="3">spin</dimension>
    <field>eigene</field>
    <field>occ</field>
    <set>
     <set comment="spin 1">
      <set comment="kpoint 1">
       <r>  -23.7608    1.0000 </r>
       <r>  -10.8418    1.0000 </r>
       <r>   -6.7345    1.0000 </r>
       <r>   -5.6434    1.0000 </r>
       <r>   -3.9575    1.0000 </r>
       <r>    1.3497    1.0000 </r>
       <r>    2.3420   -0.0000 </r>
       <r>   11.5388    0.0000 </r>
       <r>   12.9209    0.0000 </r>
       <r>   15.7440    0.0000 </r>
       <r>   19.6655    0.0000 </r>
       <r>   20.4028    0.0000 </r>
      </set>
     </set>
     <set comment="spin 2">
      <set comment="kpoint 1">
       <r>  -23.2543    1.0000 </r>
       <r>  -10.0079    1.0000 </r>
       <r>   -6.3702    1.0000 </r>
       <r>   -4.3456    1.0000 </r>
       <r>   -3.5112    1.0000 </r>
       <r>    2.8943   -0.0000 </r>
       <r>    3.2629   -0.0000 </r>
       <r>   12.0636    0.0000 </r>
       <r>   13.5379    0.0000 </r>
       <r>   15.9610    0.0000 </r>
       <r>   19.9334    0.0000 </r>
       <r>   21.1409    0.0000 </r>
      </set>
     </set>
    </set>
   </array>
  </eigenvalues>
  <separator name="orbital magnetization" >
   <v name="MAGDIPOLOUT">      0.00000000      0.00000000      0.00000000</v>
  </separator>
  <dos>
   <i name="efermi">      1.43387300 </i>
   <total>
    <array>
     <dimension dim="1">gridpoints</dimension>
     <dimension dim="2">spin</dimension>
     <field>energy</field>
     <field>total</field>
     <field>integrated</field>
     <set>
      <set comment="spin 1">
       <r>   -26.0059     0.0000     0.0000 </r>
       <r>   -25.8413     0.0000     0.0000 </r>
       <r>   -25.6766     0.0000     0.0000 </r>
       <r>   -25.5120     0.0000     0.0000 </r>
       <r>   -25.3473     0.0000     0.0000 </r>
       <r>   -25.1827     0.0000     0.0000 </r>
       <r>   -25.0181     0.0000     0.0000 </r>
       <r>   -24.8534     0.0000     0.0000 </r>
       <r>   -24.6888    -0.0000    -0.0000 </r>
       <r>   -24.5241    -0.0000    -0.0000 </r>
       <r>   -24.3595    -0.0000    -0.0000 </r>
       <r>   -24.1949    -0.0000    -0.0000 </r>
       <r>   -24.0302    -0.0028    -0.0005 </r>
       <r>   -23.8656    -0.1757    -0.0294 </r>
       <r>   -23.7009     5.7630     0.9194 </r>
       <r>   -23.5363     0.5097     1.0033 </r>
       <r>   -23.3717    -0.0203     1.0000 </r>
       <r>   -23.2070    -0.0000     1.0000 </r>
       <r>   -23.0424    -0.0000     1.0000 </r>
       <r>   -22.8777     0.0000     1.0000 </r>
       <r>   -22.7131     0.0000     1.0000 </r>
       <r>   -22.5485     0.0000     1.0000 </r>
       <r>   -22.3838     0.0000     1.0000 </r>
       <r>   -22.2192     0.0000     1.0000 </r>
       <r>   -22.0545     0.0000     1.0000 </r>
       <r>   -21.8899     0.0000     1.0000 </r>
       <r>   -21.7253     0.0000     1.0000 </r>
       <r>   -21.5606     0.0000     1.0000 </r>
       <r>   -21.3960     0.0000     1.0000 </r>
       <r>   -21.2314     0.0000     1.0000 </r>
       <r>   -21.0667     0.0000     1.0000 </r>
       <r>   -20.9021     0.0000     1.0000 </r>
       <r>   -20.7374     0.0000     1.0000 </r>
       <r>   -20.5728     0.0000     1.0000 </r>
       <r>   -20.4082     0.0000     1.0000 </r>
       <r>   -20.2435     0.0000     1.0000 </r>
       <r>   -20.0789     0.0000     1.0000 </r>
       <r>   -19.9142     0.0000     1.0000 </r>
       <r>   -19.7496     0.0000     1.0000 </r>
       <r>   -19.5850     0.0000     1.0000 </r>
       <r>   -19.4203     0.0000     1.0000 </r>
       <r>   -19.2557     0.0000     1.0000 </r>
       <r>   -19.0910     0.0000     1.0000 </r>
       <r>   -18.9264     0.0000     1.0000 </r>
       <r>   -18.7618     0.0000     1.0000 </r>
       <r>   -18.5971     0.0000     1.0000 </r>
       <r>   -18.4325     0.0000     1.0000 </r>
       <r>   -18.2678     0.0000     1.0000 </r>
       <r>   -18.1032     0.0000     1.0000 </r>
       <r>   -17.9386     0.0000     1.0000 </r>
       <r>   -17.7739     0.0000     1.0000 </r>
       <r>   -17.6093     0.0000     1.0000 </r>
       <r>   -17.4446     0.0000     1.0000 </r>
       <r>   -17.2800     0.0000     1.0000 </r>
       <r>   -17.1154     0.0000     1.0000 </r>
       <r>   -16.9507     0.0000     1.0000 </r>
       <r>   -16.7861     0.0000     1.0000 </r>
       <r>   -16.6214     0.0000     1.0000 </r>
       <r>   -16.4568     0.0000     1.0000 </r>
       <r>   -16.2922     0.0000     1.0000 </r>
       <r>   -16.1275     0.0000     1.0000 </r>
       <r>   -15.9629     0.0000     1.0000 </r>
       <r>   -15.7982     0.0000     1.0000 </r>
       <r>   -15.6336     0.0000     1.0000 </r>
       <r>   -15.4690     0.0000     1.0000 </r>
       <r>   -15.3043     0.0000     1.0000 </r>
       <r>   -15.1397     0.0000     1.0000 </r>
       <r>   -14.9750     0.0000     1.0000 </r>
       <r>   -14.8104     0.0000     1.0000 </r>
       <r>   -14.6458     0.0000     1.0000 </r>
       <r>   -14.4811     0.0000     1.0000 </r>
       <r>   -14.3165     0.0000     1.0000 </r>
       <r>   -14.1519     0.0000     1.0000 </r>
       <r>   -13.9872     0.0000     1.0000 </r>
       <r>   -13.8226     0.0000     1.0000 </r>
       <r>   -13.6579     0.0000     1.0000 </r>
       <r>   -13.4933     0.0000     1.0000 </r>
       <r>   -13.3287     0.0000     1.0000 </r>
       <r>   -13.1640     0.0000     1.0000 </r>
       <r>   -12.9994     0.0000     1.0000 </r>
       <r>   -12.8347     0.0000     1.0000 </r>
       <r>   -12.6701     0.0000     1.0000 </r>
       <r>   -12.5055     0.0000     1.0000 </r>
       <r>   -12.3408     0.0000     1.0000 </r>
       <r>   -12.1762     0.0000     1.0000 </r>
       <r>   -12.0115     0.0000     1.0000 </r>
       <r>   -11.8469     0.0000     1.0000 </r>
       <r>   -11.6823    -0.0000     1.0000 </r>
       <r>   -11.5176    -0.0000     1.0000 </r>
       <r>   -11.3530    -0.0000     1.0000 </r>
       <r>   -11.1883    -0.0000     1.0000 </r>
       <r>   -11.0237    -0.0833     0.9863 </r>
       <r>   -10.8591     2.2492     1.3566 </r>
       <r>   -10.6944     4.0829     2.0288 </r>
       <r>   -10.5298    -0.1746     2.0000 </r>
       <r>   -10.3651    -0.0003     2.0000 </r>
       <r>   -10.2005    -0.0000     2.0000 </r>
       <r>   -10.0359     0.0000     2.0000 </r>
       <r>    -9.8712     0.0000     2.0000 </r>
       <r>    -9.7066     0.0000     2.0000 </r>
       <r>    -9.5419     0.0000     2.0000 </r>
       <r>    -9.3773     0.0000     2.0000 </r>
       <r>    -9.2127     0.0000     2.0000 </r>
       <r>    -9.0480     0.0000     2.0000 </r>
       <r>    -8.8834     0.0000     2.0000 </r>
       <r>    -8.7187     0.0000     2.0000 </r>
       <r>    -8.5541     0.0000     2.0000 </r>
       <r>    -8.3895     0.0000     2.0000 </r>
       <r>    -8.2248     0.0000     2.0000 </r>
       <r>    -8.0602     0.0000     2.0000 </r>
       <r>    -7.8956     0.0000     2.0000 </r>
       <r>    -7.7309     0.0000     2.0000 </r>
       <r>    -7.5663    -0.0000     2.0000 </r>
       <r>    -7.4016    -0.0000     2.0000 </r>
       <r>    -7.2370    -0.0000     2.0000 </r>
       <r>    -7.0724    -0.0001     2.0000 </r>
       <r>    -6.9077    -0.1043     1.9828 </r>
       <r>    -6.7431     2.7035     2.4279 </r>
       <r>    -6.5784     3.6258     3.0249 </r>
       <r>    -6.4138    -0.1509     3.0000 </r>
       <r>    -6.2492    -0.0002     3.0000 </r>
       <r>    -6.0845    -0.0000     3.0000 </r>
       <r>    -5.9199    -0.0020     2.9997 </r>
       <r>    -5.7552    -0.2013     2.9665 </r>
       <r>    -5.5906     5.5782     3.8849 </r>
       <r>    -5.4260     0.7255     4.0044 </r>
       <r>    -5.2613    -0.0266     4.0000 </r>
       <r>    -5.0967    -0.0000     4.0000 </r>
       <r>    -4.9320    -0.0000     4.0000 </r>
       <r>    -4.7674    -0.0000     4.0000 </r>
       <r>    -4.6028    -0.0000     4.0000 </r>
       <r>    -4.4381    -0.0000     4.0000 </r>
       <r>    -4.2735    -0.0002     4.0000 </r>
       <r>    -4.1088    -0.1641     3.9730 </r>
       <r>    -3.9442     3.8778     4.6114 </r>
       <r>    -3.7796     2.4529     5.0152 </r>
       <r>    -3.6149    -0.0925     5.0000 </r>
       <r>    -3.4503    -0.0000     5.0000 </r>
       <r>    -3.2856    -0.0000     5.0000 </r>
       <r>    -3.1210     0.0000     5.0000 </r>
       <r>    -2.9564     0.0000     5.0000 </r>
       <r>    -2.7917     0.0000     5.0000 </r>
       <r>    -2.6271     0.0000     5.0000 </r>
       <r>    -2.4624     0.0000     5.0000 </r>
       <r>    -2.2978     0.0000     5.0000 </r>
       <r>    -2.1332     0.0000     5.0000 </r>
       <r>    -1.9685     0.0000     5.0000 </r>
       <r>    -1.8039     0.0000     5.0000 </r>
       <r>    -1.6393     0.0000     5.0000 </r>
       <r>    -1.4746     0.0000     5.0000 </r>
       <r>    -1.3100     0.0000     5.0000 </r>
       <r>    -1.1453     0.0000     5.0000 </r>
       <r>    -0.9807     0.0000     5.0000 </r>
       <r>    -0.8161     0.0000     5.0000 </r>
       <r>    -0.6514     0.0000     5.0000 </r>
       <r>    -0.4868     0.0000     5.0000 </r>
       <r>    -0.3221     0.0000     5.0000 </r>
       <r>    -0.1575     0.0000     5.0000 </r>
       <r>     0.0071     0.0000     5.0000 </r>
       <r>     0.1718     0.0000     5.0000 </r>
       <r>     0.3364     0.0000     5.0000 </r>
       <r>     0.5011    -0.0000     5.0000 </r>
       <r>     0.6657    -0.0000     5.0000 </r>
       <r>     0.8303    -0.0000     5.0000 </r>
       <r>     0.9950    -0.0000     5.0000 </r>
       <r>     1.1596    -0.0660     4.9891 </r>
       <r>     1.3243     1.8418     5.2924 </r>
       <r>     1.4889     4.4928     6.0321 </r>
       <r>     1.6535    -0.1942     6.0001 </r>
       <r>     1.8182    -0.0005     6.0000 </r>
       <r>     1.9828    -0.0000     6.0000 </r>
       <r>     2.1475    -0.0577     5.9905 </r>
       <r>     2.3121     1.6320     6.2592 </r>
       <r>     2.4767     4.7031     7.0335 </r>
       <r>     2.6414    -0.2029     7.0001 </r>
       <r>     2.8060    -0.0006     7.0000 </r>
       <r>     2.9707    -0.0000     7.0000 </r>
       <r>     3.1353     0.0000     7.0000 </r>
       <r>     3.2999     0.0000     7.0000 </r>
       <r>     3.4646     0.0000     7.0000 </r>
       <r>     3.6292     0.0000     7.0000 </r>
       <r>     3.7939     0.0000     7.0000 </r>
       <r>     3.9585     0.0000     7.0000 </r>
       <r>     4.1231     0.0000     7.0000 </r>
       <r>     4.2878     0.0000     7.0000 </r>
       <r>     4.4524     0.0000     7.0000 </r>
       <r>     4.6171     0.0000     7.0000 </r>
       <r>     4.7817     0.0000     7.0000 </r>
       <r>     4.9463     0.0000     7.0000 </r>
       <r>     5.1110     0.0000     7.0000 </r>
       <r>     5.2756     0.0000     7.0000 </r>
       <r>     5.4402     0.0000     7.0000 </r>
       <r>     5.6049     0.0000     7.0000 </r>
       <r>     5.7695     0.0000     7.0000 </r>
       <r>     5.9342     0.0000     7.0000 </r>
       <r>     6.0988     0.0000     7.0000 </r>
       <r>     6.2634     0.0000     7.0000 </r>
       <r>     6.4281     0.0000     7.0000 </r>
       <r>     6.5927     0.0000     7.0000 </r>
       <r>     6.7574     0.0000     7.0000 </r>
       <r>     6.9220     0.0000     7.0000 </r>
       <r>     7.0866     0.0000     7.0000 </r>
       <r>     7.2513     0.0000     7.0000 </r>
       <r>     7.4159     0.0000     7.0000 </r>
       <r>     7.5806     0.0000     7.0000 </r>
       <r>     7.7452     0.0000     7.0000 </r>
       <r>     7.9098     0.0000     7.0000 </r>
       <r>     8.0745     0.0000     7.0000 </r>
       <r>     8.2391     0.0000     7.0000 </r>
       <r>     8.4038     0.0000     7.0000 </r>
       <r>     8.5684     0.0000     7.0000 </r>
       <r>     8.7330     0.0000     7.0000 </r>
       <r>     8.8977     0.0000     7.0000 </r>
       <r>     9.0623     0.0000     7.0000 </r>
       <r>     9.2270     0.0000     7.0000 </r>
       <r>     9.3916     0.0000     7.0000 </r>
       <r>     9.5562     0.0000     7.0000 </r>
       <r>     9.7209     0.0000     7.0000 </r>
       <r>     9.8855     0.0000     7.0000 </r>
       <r>    10.0502     0.0000     7.0000 </r>
       <r>    10.2148     0.0000     7.0000 </r>
       <r>    10.3794     0.0000     7.0000 </r>
       <r>    10.5441     0.0000     7.0000 </r>
       <r>    10.7087    -0.0000     7.0000 </r>
       <r>    10.8734    -0.0000     7.0000 </r>
       <r>    11.0380    -0.0000     7.0000 </r>
       <r>    11.2026    -0.0001     7.0000 </r>
       <r>    11.3673    -0.1087     6.9821 </r>
       <r>    11.5319     2.7949     7.4423 </r>
       <r>    11.6965     3.5340     8.0241 </r>
       <r>    11.8612    -0.1461     8.0000 </r>
       <r>    12.0258    -0.0002     8.0000 </r>
       <r>    12.1905    -0.0000     8.0000 </r>
       <r>    12.3551    -0.0000     8.0000 </r>
       <r>    12.5197    -0.0000     8.0000 </r>
       <r>    12.6844    -0.0126     7.9979 </r>
       <r>    12.8490     0.2174     8.0337 </r>
       <r>    13.0137     5.9655     9.0159 </r>
       <r>    13.1783    -0.0915     9.0008 </r>
       <r>    13.3429    -0.0050     9.0000 </r>
       <r>    13.5076    -0.0000     9.0000 </r>
       <r>    13.6722    -0.0000     9.0000 </r>
       <r>    13.8369     0.0000     9.0000 </r>
       <r>    14.0015     0.0000     9.0000 </r>
       <r>    14.1661     0.0000     9.0000 </r>
       <r>    14.3308     0.0000     9.0000 </r>
       <r>    14.4954     0.0000     9.0000 </r>
       <r>    14.6601     0.0000     9.0000 </r>
       <r>    14.8247    -0.0000     9.0000 </r>
       <r>    14.9893    -0.0000     9.0000 </r>
       <r>    15.1540    -0.0000     9.0000 </r>
       <r>    15.3186    -0.0000     9.0000 </r>
       <r>    15.4833    -0.0043     8.9993 </r>
       <r>    15.6479    -0.1210     8.9794 </r>
       <r>    15.8125     5.9232     9.9546 </r>
       <r>    15.9772     0.2904    10.0024 </r>
       <r>    16.1418    -0.0144    10.0000 </r>
       <r>    16.3065    -0.0000    10.0000 </r>
       <r>    16.4711    -0.0000    10.0000 </r>
       <r>    16.6357     0.0000    10.0000 </r>
       <r>    16.8004     0.0000    10.0000 </r>
       <r>    16.9650     0.0000    10.0000 </r>
       <r>    17.1297     0.0000    10.0000 </r>
       <r>    17.2943     0.0000    10.0000 </r>
       <r>    17.4589     0.0000    10.0000 </r>
       <r>    17.6236     0.0000    10.0000 </r>
       <r>    17.7882     0.0000    10.0000 </r>
       <r>    17.9529     0.0000    10.0000 </r>
       <r>    18.1175     0.0000    10.0000 </r>
       <r>    18.2821     0.0000    10.0000 </r>
       <r>    18.4468     0.0000    10.0000 </r>
       <r>    18.6114     0.0000    10.0000 </r>
       <r>    18.7760    -0.0000    10.0000 </r>
       <r>    18.9407    -0.0000    10.0000 </r>
       <r>    19.1053    -0.0000    10.0000 </r>
       <r>    19.2700    -0.0000    10.0000 </r>
       <r>    19.4346    -0.0158     9.9974 </r>
       <r>    19.5992     0.3431    10.0539 </r>
       <r>    19.7639     5.8885    11.0234 </r>
       <r>    19.9285    -0.1381    11.0006 </r>
       <r>    20.0932    -0.0042    10.9999 </r>
       <r>    20.2578    -0.1809    10.9702 </r>
       <r>    20.4224     4.2088    11.6631 </r>
       <r>    20.5871     2.1242    12.0128 </r>
       <r>    20.7517    -0.0779    12.0000 </r>
       <r>    20.9164    -0.0000    12.0000 </r>
       <r>    21.0810    -0.0000    12.0000 </r>
       <r>    21.2456     0.0000    12.0000 </r>
       <r>    21.4103     0.0000    12.0000 </r>
       <r>    21.5749     0.0000    12.0000 </r>
       <r>    21.7396     0.0000    12.0000 </r>
       <r>    21.9042     0.0000    12.0000 </r>
       <r>    22.0688     0.0000    12.0000 </r>
       <r>    22.2335     0.0000    12.0000 </r>
       <r>    22.3981     0.0000    12.0000 </r>
       <r>    22.5628     0.0000    12.0000 </r>
       <r>    22.7274     0.0000    12.0000 </r>
       <r>    22.8920     0.0000    12.0000 </r>
       <r>    23.0567     0.0000    12.0000 </r>
       <r>    23.2213     0.0000    12.0000 </r>
       <r>    23.3860     0.0000    12.0000 </r>
      </set>
      <set comment="spin 2">
       <r>   -26.0059     0.0000     0.0000 </r>
       <r>   -25.8413     0.0000     0.0000 </r>
       <r>   -25.6766     0.0000     0.0000 </r>
       <r>   -25.5120     0.0000     0.0000 </r>
       <r>   -25.3473     0.0000     0.0000 </r>
       <r>   -25.1827     0.0000     0.0000 </r>
       <r>   -25.0181     0.0000     0.0000 </r>
       <r>   -24.8534     0.0000     0.0000 </r>
       <r>   -24.6888     0.0000     0.0000 </r>
       <r>   -24.5241     0.0000     0.0000 </r>
       <r>   -24.3595     0.0000     0.0000 </r>
       <r>   -24.1949    -0.0000    -0.0000 </r>
       <r>   -24.0302    -0.0000    -0.0000 </r>
       <r>   -23.8656    -0.0000    -0.0000 </r>
       <r>   -23.7009    -0.0000    -0.0000 </r>
       <r>   -23.5363    -0.0015    -0.0002 </r>
       <r>   -23.3717    -0.2113    -0.0350 </r>
       <r>   -23.2070     5.4043     0.8547 </r>
       <r>   -23.0424     0.9148     1.0053 </r>
       <r>   -22.8777    -0.0324     1.0000 </r>
       <r>   -22.7131    -0.0000     1.0000 </r>
       <r>   -22.5485    -0.0000     1.0000 </r>
       <r>   -22.3838     0.0000     1.0000 </r>
       <r>   -22.2192     0.0000     1.0000 </r>
       <r>   -22.0545     0.0000     1.0000 </r>
       <r>   -21.8899     0.0000     1.0000 </r>
       <r>   -21.7253     0.0000     1.0000 </r>
       <r>   -21.5606     0.0000     1.0000 </r>
       <r>   -21.3960     0.0000     1.0000 </r>
       <r>   -21.2314     0.0000     1.0000 </r>
       <r>   -21.0667     0.0000     1.0000 </r>
       <r>   -20.9021     0.0000     1.0000 </r>
       <r>   -20.7374     0.0000     1.0000 </r>
       <r>   -20.5728     0.0000     1.0000 </r>
       <r>   -20.4082     0.0000     1.0000 </r>
       <r>   -20.2435     0.0000     1.0000 </r>
       <r>   -20.0789     0.0000     1.0000 </r>
       <r>   -19.9142     0.0000     1.0000 </r>
       <r>   -19.7496     0.0000     1.0000 </r>
       <r>   -19.5850     0.0000     1.0000 </r>
       <r>   -19.4203     0.0000     1.0000 </r>
       <r>   -19.2557     0.0000     1.0000 </r>
       <r>   -19.0910     0.0000     1.0000 </r>
       <r>   -18.9264     0.0000     1.0000 </r>
       <r>   -18.7618     0.0000     1.0000 </r>
       <r>   -18.5971     0.0000     1.0000 </r>
       <r>   -18.4325     0.0000     1.0000 </r>
       <r>   -18.2678     0.0000     1.0000 </r>
       <r>   -18.1032     0.0000     1.0000 </r>
       <r>   -17.9386     0.0000     1.0000 </r>
       <r>   -17.7739     0.0000     1.0000 </r>
       <r>   -17.6093     0.0000     1.0000 </r>
       <r>   -17.4446     0.0000     1.0000 </r>
       <r>   -17.2800     0.0000     1.0000 </r>
       <r>   -17.1154     0.0000     1.0000 </r>
       <r>   -16.9507     0.0000     1.0000 </r>
       <r>   -16.7861     0.0000     1.0000 </r>
       <r>   -16.6214     0.0000     1.0000 </r>
       <r>   -16.4568     0.0000     1.0000 </r>
       <r>   -16.2922     0.0000     1.0000 </r>
       <r>   -16.1275     0.0000     1.0000 </r>
       <r>   -15.9629     0.0000     1.0000 </r>
       <r>   -15.7982     0.0000     1.0000 </r>
       <r>   -15.6336     0.0000     1.0000 </r>
       <r>   -15.4690     0.0000     1.0000 </r>
       <r>   -15.3043     0.0000     1.0000 </r>
       <r>   -15.1397     0.0000     1.0000 </r>
       <r>   -14.9750     0.0000     1.0000 </r>
       <r>   -14.8104     0.0000     1.0000 </r>
       <r>   -14.6458     0.0000     1.0000 </r>
       <r>   -14.4811     0.0000     1.0000 </r>
       <r>   -14.3165     0.0000     1.0000 </r>
       <r>   -14.1519     0.0000     1.0000 </r>
       <r>   -13.9872     0.0000     1.0000 </r>
       <r>   -13.8226     0.0000     1.0000 </r>
       <r>   -13.6579     0.0000     1.0000 </r>
       <r>   -13.4933     0.0000     1.0000 </r>
       <r>   -13.3287     0.0000     1.0000 </r>
       <r>   -13.1640     0.0000     1.0000 </r>
       <r>   -12.9994     0.0000     1.0000 </r>
       <r>   -12.8347     0.0000     1.0000 </r>
       <r>   -12.6701     0.0000     1.0000 </r>
       <r>   -12.5055     0.0000     1.0000 </r>
       <r>   -12.3408     0.0000     1.0000 </r>
       <r>   -12.1762     0.0000     1.0000 </r>
       <r>   -12.0115     0.0000     1.0000 </r>
       <r>   -11.8469     0.0000     1.0000 </r>
       <r>   -11.6823     0.0000     1.0000 </r>
       <r>   -11.5176     0.0000     1.0000 </r>
       <r>   -11.3530     0.0000     1.0000 </r>
       <r>   -11.1883     0.0000     1.0000 </r>
       <r>   -11.0237     0.0000     1.0000 </r>
       <r>   -10.8591    -0.0000     1.0000 </r>
       <r>   -10.6944    -0.0000     1.0000 </r>
       <r>   -10.5298    -0.0000     1.0000 </r>
       <r>   -10.3651    -0.0000     1.0000 </r>
       <r>   -10.2005    -0.0612     0.9899 </r>
       <r>   -10.0359     1.7204     1.2732 </r>
       <r>    -9.8712     4.6146     2.0329 </r>
       <r>    -9.7066    -0.1994     2.0001 </r>
       <r>    -9.5419    -0.0005     2.0000 </r>
       <r>    -9.3773    -0.0000     2.0000 </r>
       <r>    -9.2127     0.0000     2.0000 </r>
       <r>    -9.0480     0.0000     2.0000 </r>
       <r>    -8.8834     0.0000     2.0000 </r>
       <r>    -8.7187     0.0000     2.0000 </r>
       <r>    -8.5541     0.0000     2.0000 </r>
       <r>    -8.3895     0.0000     2.0000 </r>
       <r>    -8.2248     0.0000     2.0000 </r>
       <r>    -8.0602     0.0000     2.0000 </r>
       <r>    -7.8956     0.0000     2.0000 </r>
       <r>    -7.7309     0.0000     2.0000 </r>
       <r>    -7.5663     0.0000     2.0000 </r>
       <r>    -7.4016     0.0000     2.0000 </r>
       <r>    -7.2370    -0.0000     2.0000 </r>
       <r>    -7.0724    -0.0000     2.0000 </r>
       <r>    -6.9077    -0.0000     2.0000 </r>
       <r>    -6.7431    -0.0000     2.0000 </r>
       <r>    -6.5784    -0.0368     1.9939 </r>
       <r>    -6.4138     1.0504     2.1669 </r>
       <r>    -6.2492     5.2755     3.0354 </r>
       <r>    -6.0845    -0.2139     3.0002 </r>
       <r>    -5.9199    -0.0012     3.0000 </r>
       <r>    -5.7552    -0.0000     3.0000 </r>
       <r>    -5.5906     0.0000     3.0000 </r>
       <r>    -5.4260     0.0000     3.0000 </r>
       <r>    -5.2613    -0.0000     3.0000 </r>
       <r>    -5.0967    -0.0000     3.0000 </r>
       <r>    -4.9320    -0.0000     3.0000 </r>
       <r>    -4.7674    -0.0000     3.0000 </r>
       <r>    -4.6028    -0.0051     2.9992 </r>
       <r>    -4.4381    -0.0887     2.9846 </r>
       <r>    -4.2735     5.9686     3.9672 </r>
       <r>    -4.1088     0.2116     4.0020 </r>
       <r>    -3.9442    -0.0124     4.0000 </r>
       <r>    -3.7796    -0.0030     3.9995 </r>
       <r>    -3.6149    -0.1708     3.9714 </r>
       <r>    -3.4503     5.7852     4.9239 </r>
       <r>    -3.2856     0.4820     5.0032 </r>
       <r>    -3.1210    -0.0196     5.0000 </r>
       <r>    -2.9564    -0.0000     5.0000 </r>
       <r>    -2.7917    -0.0000     5.0000 </r>
       <r>    -2.6271     0.0000     5.0000 </r>
       <r>    -2.4624     0.0000     5.0000 </r>
       <r>    -2.2978     0.0000     5.0000 </r>
       <r>    -2.1332     0.0000     5.0000 </r>
       <r>    -1.9685     0.0000     5.0000 </r>
       <r>    -1.8039     0.0000     5.0000 </r>
       <r>    -1.6393     0.0000     5.0000 </r>
       <r>    -1.4746     0.0000     5.0000 </r>
       <r>    -1.3100     0.0000     5.0000 </r>
       <r>    -1.1453     0.0000     5.0000 </r>
       <r>    -0.9807     0.0000     5.0000 </r>
       <r>    -0.8161     0.0000     5.0000 </r>
       <r>    -0.6514     0.0000     5.0000 </r>
       <r>    -0.4868     0.0000     5.0000 </r>
       <r>    -0.3221     0.0000     5.0000 </r>
       <r>    -0.1575     0.0000     5.0000 </r>
       <r>     0.0071     0.0000     5.0000 </r>
       <r>     0.1718     0.0000     5.0000 </r>
       <r>     0.3364     0.0000     5.0000 </r>
       <r>     0.5011     0.0000     5.0000 </r>
       <r>     0.6657     0.0000     5.0000 </r>
       <r>     0.8303     0.0000     5.0000 </r>
       <r>     0.9950     0.0000     5.0000 </r>
       <r>     1.1596     0.0000     5.0000 </r>
       <r>     1.3243     0.0000     5.0000 </r>
       <r>     1.4889     0.0000     5.0000 </r>
       <r>     1.6535     0.0000     5.0000 </r>
       <r>     1.8182     0.0000     5.0000 </r>
       <r>     1.9828    -0.0000     5.0000 </r>
       <r>     2.1475    -0.0000     5.0000 </r>
       <r>     2.3121    -0.0000     5.0000 </r>
       <r>     2.4767    -0.0000     5.0000 </r>
       <r>     2.6414    -0.0062     4.9990 </r>
       <r>     2.8060    -0.0448     4.9916 </r>
       <r>     2.9707     6.0025     5.9799 </r>
       <r>     3.1353    -0.0804     5.9666 </r>
       <r>     3.2999     5.0071     6.7910 </r>
       <r>     3.4646     1.3154     7.0076 </r>
       <r>     3.6292    -0.0459     7.0000 </r>
       <r>     3.7939    -0.0000     7.0000 </r>
       <r>     3.9585    -0.0000     7.0000 </r>
       <r>     4.1231     0.0000     7.0000 </r>
       <r>     4.2878     0.0000     7.0000 </r>
       <r>     4.4524     0.0000     7.0000 </r>
       <r>     4.6171     0.0000     7.0000 </r>
       <r>     4.7817     0.0000     7.0000 </r>
       <r>     4.9463     0.0000     7.0000 </r>
       <r>     5.1110     0.0000     7.0000 </r>
       <r>     5.2756     0.0000     7.0000 </r>
       <r>     5.4402     0.0000     7.0000 </r>
       <r>     5.6049     0.0000     7.0000 </r>
       <r>     5.7695     0.0000     7.0000 </r>
       <r>     5.9342     0.0000     7.0000 </r>
       <r>     6.0988     0.0000     7.0000 </r>
       <r>     6.2634     0.0000     7.0000 </r>
       <r>     6.4281     0.0000     7.0000 </r>
       <r>     6.5927     0.0000     7.0000 </r>
       <r>     6.7574     0.0000     7.0000 </r>
       <r>     6.9220     0.0000     7.0000 </r>
       <r>     7.0866     0.0000     7.0000 </r>
       <r>     7.2513     0.0000     7.0000 </r>
       <r>     7.4159     0.0000     7.0000 </r>
       <r>     7.5806     0.0000     7.0000 </r>
       <r>     7.7452     0.0000     7.0000 </r>
       <r>     7.9098     0.0000     7.0000 </r>
       <r>     8.0745     0.0000     7.0000 </r>
       <r>     8.2391     0.0000     7.0000 </r>
       <r>     8.4038     0.0000     7.0000 </r>
       <r>     8.5684     0.0000     7.0000 </r>
       <r>     8.7330     0.0000     7.0000 </r>
       <r>     8.8977     0.0000     7.0000 </r>
       <r>     9.0623     0.0000     7.0000 </r>
       <r>     9.2270     0.0000     7.0000 </r>
       <r>     9.3916     0.0000     7.0000 </r>
       <r>     9.5562     0.0000     7.0000 </r>
       <r>     9.7209     0.0000     7.0000 </r>
       <r>     9.8855     0.0000     7.0000 </r>
       <r>    10.0502     0.0000     7.0000 </r>
       <r>    10.2148     0.0000     7.0000 </r>
       <r>    10.3794     0.0000     7.0000 </r>
       <r>    10.5441     0.0000     7.0000 </r>
       <r>    10.7087     0.0000     7.0000 </r>
       <r>    10.8734     0.0000     7.0000 </r>
       <r>    11.0380     0.0000     7.0000 </r>
       <r>    11.2026    -0.0000     7.0000 </r>
       <r>    11.3673    -0.0000     7.0000 </r>
       <r>    11.5319    -0.0000     7.0000 </r>
       <r>    11.6965    -0.0000     7.0000 </r>
       <r>    11.8612    -0.0449     6.9926 </r>
       <r>    12.0258     1.2869     7.2045 </r>
       <r>    12.1905     5.0455     8.0352 </r>
       <r>    12.3551    -0.2127     8.0001 </r>
       <r>    12.5197    -0.0009     8.0000 </r>
       <r>    12.6844    -0.0000     8.0000 </r>
       <r>    12.8490    -0.0000     8.0000 </r>
       <r>    13.0137    -0.0000     8.0000 </r>
       <r>    13.1783    -0.0000     8.0000 </r>
       <r>    13.3429    -0.0569     7.9906 </r>
       <r>    13.5076     1.6122     8.2560 </r>
       <r>    13.6722     4.7229     9.0336 </r>
       <r>    13.8369    -0.2036     9.0001 </r>
       <r>    14.0015    -0.0006     9.0000 </r>
       <r>    14.1661    -0.0000     9.0000 </r>
       <r>    14.3308     0.0000     9.0000 </r>
       <r>    14.4954     0.0000     9.0000 </r>
       <r>    14.6601     0.0000     9.0000 </r>
       <r>    14.8247     0.0000     9.0000 </r>
       <r>    14.9893     0.0000     9.0000 </r>
       <r>    15.1540    -0.0000     9.0000 </r>
       <r>    15.3186    -0.0000     9.0000 </r>
       <r>    15.4833    -0.0000     9.0000 </r>
       <r>    15.6479    -0.0003     9.0000 </r>
       <r>    15.8125    -0.1718     8.9717 </r>
       <r>    15.9772     4.0281     9.6349 </r>
       <r>    16.1418     2.3036    10.0141 </r>
       <r>    16.3065    -0.0857    10.0000 </r>
       <r>    16.4711    -0.0000    10.0000 </r>
       <r>    16.6357    -0.0000    10.0000 </r>
       <r>    16.8004     0.0000    10.0000 </r>
       <r>    16.9650     0.0000    10.0000 </r>
       <r>    17.1297     0.0000    10.0000 </r>
       <r>    17.2943     0.0000    10.0000 </r>
       <r>    17.4589     0.0000    10.0000 </r>
       <r>    17.6236     0.0000    10.0000 </r>
       <r>    17.7882     0.0000    10.0000 </r>
       <r>    17.9529     0.0000    10.0000 </r>
       <r>    18.1175     0.0000    10.0000 </r>
       <r>    18.2821     0.0000    10.0000 </r>
       <r>    18.4468     0.0000    10.0000 </r>
       <r>    18.6114     0.0000    10.0000 </r>
       <r>    18.7760     0.0000    10.0000 </r>
       <r>    18.9407     0.0000    10.0000 </r>
       <r>    19.1053    -0.0000    10.0000 </r>
       <r>    19.2700    -0.0000    10.0000 </r>
       <r>    19.4346    -0.0000    10.0000 </r>
       <r>    19.5992    -0.0001    10.0000 </r>
       <r>    19.7639    -0.1138     9.9812 </r>
       <r>    19.9285     2.9001    10.4587 </r>
       <r>    20.0932     3.4285    11.0232 </r>
       <r>    20.2578    -0.1407    11.0000 </r>
       <r>    20.4224    -0.0001    11.0000 </r>
       <r>    20.5871    -0.0000    11.0000 </r>
       <r>    20.7517    -0.0000    11.0000 </r>
       <r>    20.9164    -0.0203    10.9967 </r>
       <r>    21.0810     0.5097    11.0806 </r>
       <r>    21.2456     5.7630    12.0294 </r>
       <r>    21.4103    -0.1757    12.0005 </r>
       <r>    21.5749    -0.0028    12.0000 </r>
       <r>    21.7396    -0.0000    12.0000 </r>
       <r>    21.9042    -0.0000    12.0000 </r>
       <r>    22.0688     0.0000    12.0000 </r>
       <r>    22.2335     0.0000    12.0000 </r>
       <r>    22.3981     0.0000    12.0000 </r>
       <r>    22.5628     0.0000    12.0000 </r>
       <r>    22.7274     0.0000    12.0000 </r>
       <r>    22.8920     0.0000    12.0000 </r>
       <r>    23.0567     0.0000    12.0000 </r>
       <r>    23.2213     0.0000    12.0000 </r>
       <r>    23.3860     0.0000    12.0000 </r>
      </set>
     </set>
    </array>
   </total>
  </dos>
 </calculation>
 <structure name="finalpos" >
  <crystal>
   <varray name="basis" >
    <v>       2.00000000       0.00000000       0.00000000 </v>
    <v>       0.00000000       3.00000000       0.00000000 </v>
    <v>       0.00000000       0.00000000       4.00000000 </v>
   </varray>
   <i name="volume">     24.00000000 </i>
   <varray name="rec_basis" >
    <v>       0.50000000       0.00000000       0.00000000 </v>
    <v>       0.00000000       0.33333333       0.00000000 </v>
    <v>       0.00000000       0.00000000       0.25000000 </v>
   </varray>
  </crystal>
  <varray name="positions" >
   <v>       0.50000000       0.50000000       0.56647988 </v>
   <v>       0.50000000       0.50000000       0.25589667 </v>
  </varray>
  <varray name="selective"  type="logical" >
   <v type="logical" >  T  T  T </v>
   <v type="logical" >  T  T  T </v>
  </varray>
  <nose>
   <v>      -3.00000000       0.00000000       0.00010000       0.00010000 </v>
  </nose>
 </structure>
</modeling>
