unknown system                          
           1
     2.000000    0.000000    0.000000
     0.000000    3.000000    0.000000
     0.000000    0.000000    4.000000
   N    O 
     1     1
Direct configuration=     1
   0.50000000  0.50000000  0.56044028
   0.50000000  0.50000000  0.26193626
Direct configuration=     2
   0.50000000  0.50000000  0.61743931
   0.50000000  0.50000000  0.20493723
Direct configuration=     3
   0.50000000  0.50000000  0.58733908
   0.50000000  0.50000000  0.23503746
Direct configuration=     4
   0.50000000  0.50000000  0.57133864
   0.50000000  0.50000000  0.25103790
Direct configuration=     5
   0.50000000  0.50000000  0.56736677
   0.50000000  0.50000000  0.25500977
Direct configuration=     6
   0.50000000  0.50000000  0.56642506
   0.50000000  0.50000000  0.25595148
Direct configuration=     7
   0.50000000  0.50000000  0.56647988
   0.50000000  0.50000000  0.25589667
