 written on 22May2024 at 22:01:29 
  -2.7252626242384999        0.0000000000000000        2.7252626242384999     
   0.0000000000000000        2.7252626242384999        2.7252626242384999     
  -2.7252626242384999        2.7252626242384999        0.0000000000000000     
           4
          93
    4    6    2    2    2    1    2    2    1    1    2    6    2    2    2
    6    2    2    4    1    1    1    4    1    1    1    1    2    1    1
    1    2    2    1    1    2    4    2    1    2    1    1    1    1    2
    1    1    1    2    1    1    1    1    2    1    2    4    2    1    1
    2    2    1    1    1    2    1    1    1    1    4    1    1    1    4
    2    2    6    2    2    2    6    2    1    1    2    2    1    2    2
    2    6    4

   -3    1    1
    1    1    0.64333586E-02 -0.54433863E-08
    2    1   -0.17494694E-02 -0.26167179E-08
    3    1   -0.17494696E-02 -0.23659182E-08
    4    1   -0.17494696E-02 -0.23664307E-08
    1    2   -0.17494722E-02 -0.28715703E-08
    2    2    0.64333598E-02  0.14970506E-08
    3    2   -0.17494684E-02  0.40394825E-08
    4    2   -0.17494684E-02  0.40396454E-08
    1    3   -0.17494723E-02 -0.24451194E-08
    2    3   -0.17494685E-02  0.42143932E-08
    3    3    0.64333596E-02  0.19731724E-08
    4    3   -0.17494685E-02  0.40912779E-08
    1    4   -0.17494723E-02 -0.24446053E-08
    2    4   -0.17494685E-02  0.42142210E-08
    3    4   -0.17494685E-02  0.40909377E-08
    4    4    0.64333596E-02  0.19731733E-08

   -2   -2    2
    1    1    0.34346073E-02 -0.38375277E-17
    2    1   -0.82717074E-03  0.29622881E-09
    3    1   -0.82717096E-03  0.54530926E-09
    4    1   -0.82717109E-03  0.54582059E-09
    1    2   -0.82717074E-03 -0.29622883E-09
    2    2    0.34346100E-02 -0.10849137E-16
    3    2   -0.82717836E-03  0.24870951E-09
    4    2   -0.82717823E-03  0.24853855E-09
    1    3   -0.82717096E-03 -0.54530928E-09
    2    3   -0.82717836E-03 -0.24870948E-09
    3    3    0.34346101E-02 -0.15908260E-16
    4    3   -0.82717802E-03 -0.17441067E-12
    1    4   -0.82717109E-03 -0.54582057E-09
    2    4   -0.82717823E-03 -0.24853856E-09
    3    4   -0.82717802E-03  0.17439179E-12
    4    4    0.34346101E-02  0.43174684E-17

   -2   -1    1
    1    1   -0.43720096E-02  0.32232769E-09
    2    1   -0.30372472E-03 -0.15746111E-08
    3    1    0.28720997E-02  0.55993720E-08
    4    1    0.15034405E-02 -0.21688289E-08
    1    2    0.15034403E-02  0.26358321E-08
    2    2    0.46649768E-02 -0.12375055E-08
    3    2    0.15034447E-02  0.63910938E-08
    4    2   -0.24624559E-02  0.16482151E-09
    1    3    0.28720995E-02 -0.56491452E-08
    2    3   -0.30372189E-03 -0.56277489E-09
    3    3   -0.43720066E-02 -0.73689745E-09
    4    3    0.15034448E-02 -0.64986815E-08
    1    4   -0.30372477E-03  0.18156363E-08
    2    4    0.31412209E-02 -0.28088353E-10
    3    4   -0.30372194E-03  0.59275069E-09
    4    4    0.46649769E-02  0.16520515E-08

   -2   -1    2
    1    1    0.46649789E-02 -0.21611665E-08
    2    1    0.31412239E-02  0.32328695E-08
    3    1   -0.30372790E-03  0.23143974E-08
    4    1   -0.30372761E-03  0.23145675E-08
    1    2   -0.24624529E-02  0.58463702E-08
    2    2    0.46649779E-02 -0.45362325E-08
    3    2    0.15034438E-02  0.47532276E-08
    4    2    0.15034437E-02  0.47533962E-08
    1    3    0.15034437E-02 -0.23530956E-08
    2    3   -0.30372101E-03  0.33785648E-08
    3    3   -0.43720096E-02  0.33488696E-08
    4    3    0.28720990E-02 -0.78876537E-08
    1    4    0.15034439E-02 -0.23529280E-08
    2    4   -0.30372130E-03  0.33787401E-08
    3    4    0.28720990E-02 -0.78876514E-08
    4    4   -0.43720096E-02  0.33485311E-08

   -2    0    0
    1    1    0.13729919E+00 -0.51015142E-15
    2    1    0.15952621E-02  0.42449441E-08
    3    1   -0.14101721E+00 -0.12959344E-07
    4    1    0.15952604E-02  0.45472660E-08
    1    2    0.15952621E-02 -0.42449442E-08
    2    2   -0.37203095E-01 -0.56822138E-15
    3    2    0.15952604E-02 -0.62423898E-08
    4    2   -0.35909493E-01  0.14909011E-09
    1    3   -0.14101721E+00  0.12959344E-07
    2    3    0.15952604E-02  0.62423897E-08
    3    3    0.13729919E+00 -0.52531526E-15
    4    3    0.15952619E-02  0.59011926E-08
    1    4    0.15952604E-02 -0.45472662E-08
    2    4   -0.35909493E-01 -0.14909025E-09
    3    4    0.15952619E-02 -0.59011927E-08
    4    4   -0.37203095E-01 -0.58632513E-15

   -2    0    1
    1    1   -0.68525357E-02  0.71750939E-10
    2    1    0.37558434E-02 -0.17870059E-08
    3    1   -0.35898355E-02  0.64049682E-08
    4    1    0.24343189E-02 -0.36722582E-08
    1    2   -0.28171027E-02 -0.30684167E-09
    2    2    0.55736466E-02  0.35639836E-08
    3    2   -0.74569782E-02  0.47467919E-08
    4    2   -0.28171060E-02 -0.63264776E-08
    1    3    0.39230350E-02  0.79549199E-09
    2    3   -0.74238444E-02 -0.88358453E-08
    3    3    0.38079805E-02 -0.48891498E-08
    4    3    0.39230221E-02  0.46291355E-09
    1    4    0.24343179E-02 -0.33285356E-09
    2    4    0.37558451E-02  0.15922949E-08
    3    4   -0.35898432E-02  0.26633707E-08
    4    4   -0.68525289E-02  0.12534026E-08

   -2    0    2
    1    1   -0.37203086E-01  0.13968242E-16
    2    1   -0.35909497E-01  0.20299083E-08
    3    1    0.15952565E-02  0.13409641E-08
    4    1    0.15952566E-02  0.13404460E-08
    1    2   -0.35909497E-01 -0.20299083E-08
    2    2   -0.37203089E-01 -0.24543685E-16
    3    2    0.15952579E-02  0.47582716E-08
    4    2    0.15952577E-02  0.47584427E-08
    1    3    0.15952565E-02 -0.13409641E-08
    2    3    0.15952579E-02 -0.47582716E-08
    3    3    0.13729918E+00 -0.23318755E-16
    4    3   -0.14101719E+00  0.17162579E-12
    1    4    0.15952566E-02 -0.13404460E-08
    2    4    0.15952577E-02 -0.47584428E-08
    3    4   -0.14101719E+00 -0.17165355E-12
    4    4    0.13729918E+00  0.51530597E-17

   -2    1   -1
    1    1   -0.43720096E-02 -0.32232775E-09
    2    1    0.15034403E-02 -0.26358321E-08
    3    1    0.28720995E-02  0.56491451E-08
    4    1   -0.30372477E-03 -0.18156364E-08
    1    2   -0.30372472E-03  0.15746111E-08
    2    2    0.46649768E-02  0.12375054E-08
    3    2   -0.30372189E-03  0.56277485E-09
    4    2    0.31412209E-02  0.28088314E-10
    1    3    0.28720997E-02 -0.55993720E-08
    2    3    0.15034447E-02 -0.63910938E-08
    3    3   -0.43720066E-02  0.73689738E-09
    4    3   -0.30372194E-03 -0.59275072E-09
    1    4    0.15034405E-02  0.21688289E-08
    2    4   -0.24624559E-02 -0.16482158E-09
    3    4    0.15034448E-02  0.64986816E-08
    4    4    0.46649769E-02 -0.16520516E-08

   -2    1    0
    1    1   -0.68525355E-02 -0.22674196E-09
    2    1    0.24343190E-02 -0.38018801E-08
    3    1   -0.35898354E-02  0.66563069E-08
    4    1    0.37558434E-02 -0.17781367E-08
    1    2    0.24343182E-02 -0.40438785E-09
    2    2   -0.68525285E-02  0.99031046E-09
    3    2   -0.35898423E-02  0.28842909E-08
    4    2    0.37558451E-02  0.17119413E-08
    1    3    0.39230348E-02  0.70980739E-09
    2    3    0.39230217E-02  0.37827608E-09
    3    3    0.38079801E-02 -0.43756429E-08
    4    3   -0.74238446E-02 -0.91402366E-08
    1    4   -0.28171026E-02 -0.68343747E-09
    2    4   -0.28171064E-02 -0.65905090E-08
    3    4   -0.74569783E-02  0.50856148E-08
    4    4    0.55736464E-02  0.36120767E-08

   -2    1    1
    1    1    0.55736486E-02 -0.63215006E-09
    2    1   -0.28171044E-02  0.33153138E-08
    3    1   -0.74569829E-02  0.27405814E-08
    4    1   -0.28171048E-02  0.32027440E-08
    1    2    0.37558469E-02  0.16965353E-08
    2    2   -0.68525310E-02  0.31603194E-08
    3    2   -0.35898405E-02 -0.22587415E-08
    4    2    0.24343196E-02  0.22817731E-08
    1    3   -0.74238465E-02 -0.12524455E-08
    2    3    0.39230277E-02 -0.62957107E-08
    3    3    0.38079764E-02 -0.56541320E-08
    4    3    0.39230279E-02 -0.62967691E-08
    1    4    0.37558465E-02  0.15847012E-08
    2    4    0.24343202E-02  0.22247387E-08
    3    4   -0.35898405E-02 -0.22293847E-08
    4    4   -0.68525315E-02  0.31259659E-08

   -2    1    2
    1    1    0.46649789E-02  0.21611665E-08
    2    1   -0.24624529E-02 -0.58463702E-08
    3    1    0.15034437E-02  0.23530956E-08
    4    1    0.15034439E-02  0.23529280E-08
    1    2    0.31412239E-02 -0.32328695E-08
    2    2    0.46649779E-02  0.45362324E-08
    3    2   -0.30372101E-03 -0.33785648E-08
    4    2   -0.30372130E-03 -0.33787401E-08
    1    3   -0.30372790E-03 -0.23143974E-08
    2    3    0.15034438E-02 -0.47532276E-08
    3    3   -0.43720096E-02 -0.33488696E-08
    4    3    0.28720990E-02  0.78876514E-08
    1    4   -0.30372761E-03 -0.23145674E-08
    2    4    0.15034437E-02 -0.47533962E-08
    3    4    0.28720990E-02  0.78876538E-08
    4    4   -0.43720096E-02 -0.33485312E-08

   -2    2   -2
    1    1    0.34346073E-02 -0.38375278E-17
    2    1   -0.82717074E-03  0.29622883E-09
    3    1   -0.82717096E-03  0.54530927E-09
    4    1   -0.82717109E-03  0.54582058E-09
    1    2   -0.82717074E-03 -0.29622881E-09
    2    2    0.34346100E-02  0.83078029E-17
    3    2   -0.82717836E-03  0.24870949E-09
    4    2   -0.82717823E-03  0.24853854E-09
    1    3   -0.82717096E-03 -0.54530927E-09
    2    3   -0.82717836E-03 -0.24870951E-09
    3    3    0.34346101E-02 -0.15908260E-16
    4    3   -0.82717802E-03 -0.17438456E-12
    1    4   -0.82717109E-03 -0.54582058E-09
    2    4   -0.82717823E-03 -0.24853856E-09
    3    4   -0.82717802E-03  0.17441097E-12
    4    4    0.34346101E-02 -0.14839471E-16

   -2    2   -1
    1    1    0.46649789E-02 -0.23976193E-08
    2    1   -0.30372741E-03  0.19088320E-08
    3    1   -0.30372754E-03  0.22489699E-08
    4    1    0.31412241E-02  0.32599091E-08
    1    2    0.15034436E-02 -0.25497556E-08
    2    2   -0.43720096E-02  0.30261979E-08
    3    2    0.28720993E-02 -0.77397831E-08
    4    2   -0.30372128E-03  0.35434534E-08
    1    3    0.15034433E-02 -0.23436460E-08
    2    3    0.28720994E-02 -0.79846790E-08
    3    3   -0.43720099E-02  0.40847056E-08
    4    3   -0.30372145E-03  0.34150806E-08
    1    4   -0.24624529E-02  0.56815419E-08
    2    4    0.15034435E-02  0.44821647E-08
    3    4    0.15034436E-02  0.48513726E-08
    4    4    0.46649782E-02 -0.47132848E-08

   -2    2    0
    1    1   -0.37203087E-01  0.19835821E-16
    2    1    0.15952557E-02  0.15657683E-08
    3    1    0.15952577E-02  0.14755437E-08
    4    1   -0.35909497E-01  0.21789938E-08
    1    2    0.15952557E-02 -0.15657683E-08
    2    2    0.13729918E+00  0.51790542E-17
    3    2   -0.14101719E+00  0.79230147E-09
    4    2    0.15952588E-02 -0.46803946E-08
    1    3    0.15952577E-02 -0.14755437E-08
    2    3   -0.14101719E+00 -0.79230147E-09
    3    3    0.13729918E+00 -0.15331676E-16
    4    3    0.15952567E-02 -0.52351108E-08
    1    4   -0.35909497E-01 -0.21789938E-08
    2    4    0.15952588E-02  0.46803946E-08
    3    4    0.15952567E-02  0.52351107E-08
    4    4   -0.37203088E-01  0.17459232E-17

   -2    2    1
    1    1    0.46649789E-02  0.23976192E-08
    2    1    0.15034436E-02  0.25497556E-08
    3    1    0.15034433E-02  0.23436460E-08
    4    1   -0.24624529E-02 -0.56815419E-08
    1    2   -0.30372741E-03 -0.19088320E-08
    2    2   -0.43720096E-02 -0.30261979E-08
    3    2    0.28720994E-02  0.79846790E-08
    4    2    0.15034435E-02 -0.44821647E-08
    1    3   -0.30372754E-03 -0.22489699E-08
    2    3    0.28720993E-02  0.77397831E-08
    3    3   -0.43720099E-02 -0.40847056E-08
    4    3    0.15034436E-02 -0.48513726E-08
    1    4    0.31412241E-02 -0.32599091E-08
    2    4   -0.30372128E-03 -0.35434534E-08
    3    4   -0.30372145E-03 -0.34150806E-08
    4    4    0.46649782E-02  0.47132848E-08

   -2    2    2
    1    1    0.34346073E-02  0.83779976E-18
    2    1   -0.82717074E-03  0.29622883E-09
    3    1   -0.82717096E-03  0.54530927E-09
    4    1   -0.82717109E-03  0.54582059E-09
    1    2   -0.82717074E-03 -0.29622881E-09
    2    2    0.34346100E-02 -0.61738081E-17
    3    2   -0.82717836E-03  0.24870951E-09
    4    2   -0.82717823E-03  0.24853854E-09
    1    3   -0.82717096E-03 -0.54530929E-09
    2    3   -0.82717836E-03 -0.24870950E-09
    3    3    0.34346101E-02 -0.30389870E-16
    4    3   -0.82717802E-03 -0.17438962E-12
    1    4   -0.82717109E-03 -0.54582059E-09
    2    4   -0.82717823E-03 -0.24853857E-09
    3    4   -0.82717802E-03  0.17441284E-12
    4    4    0.34346101E-02 -0.10164142E-16

   -1   -2    1
    1    1   -0.43720099E-02  0.26543975E-14
    2    1    0.28720994E-02  0.55021672E-08
    3    1   -0.30372520E-03 -0.24405965E-08
    4    1    0.15034407E-02 -0.72482675E-09
    1    2    0.28720994E-02 -0.55018203E-08
    2    2   -0.43720065E-02 -0.33933776E-12
    3    2   -0.30372161E-03 -0.10886339E-08
    4    2    0.15034448E-02 -0.46854717E-08
    1    3    0.15034405E-02  0.72465682E-09
    2    3    0.15034449E-02  0.46856471E-08
    3    3    0.46649770E-02 -0.31475946E-08
    4    3   -0.24624559E-02 -0.16564989E-12
    1    4   -0.30372491E-03  0.24404286E-08
    2    4   -0.30372191E-03  0.10887992E-08
    3    4    0.31412206E-02 -0.17255421E-12
    4    4    0.46649770E-02  0.31479472E-08

   -1   -2    2
    1    1    0.46649788E-02 -0.23976134E-08
    2    1   -0.30372712E-03  0.19084814E-08
    3    1    0.31412243E-02  0.32604236E-08
    4    1   -0.30372777E-03  0.22488019E-08
    1    2    0.15034438E-02 -0.25497660E-08
    2    2   -0.43720096E-02  0.30265417E-08
    3    2   -0.30372150E-03  0.35432739E-08
    4    2    0.28720991E-02 -0.77399628E-08
    1    3   -0.24624527E-02  0.56813773E-08
    2    3    0.15034436E-02  0.44823342E-08
    3    3    0.46649782E-02 -0.47136185E-08
    4    3    0.15034437E-02  0.48517164E-08
    1    4    0.15034435E-02 -0.23434757E-08
    2    4    0.28720993E-02 -0.79848594E-08
    3    4   -0.30372118E-03  0.34150758E-08
    4    4   -0.43720099E-02  0.40847074E-08

   -1   -1   -1
    1    1    0.64333586E-02  0.54433862E-08
    2    1   -0.17494722E-02  0.28715703E-08
    3    1   -0.17494723E-02  0.24451194E-08
    4    1   -0.17494723E-02  0.24446053E-08
    1    2   -0.17494694E-02  0.26167179E-08
    2    2    0.64333598E-02 -0.14970506E-08
    3    2   -0.17494685E-02 -0.42143932E-08
    4    2   -0.17494685E-02 -0.42142210E-08
    1    3   -0.17494696E-02  0.23659182E-08
    2    3   -0.17494684E-02 -0.40394825E-08
    3    3    0.64333596E-02 -0.19731724E-08
    4    3   -0.17494685E-02 -0.40909377E-08
    1    4   -0.17494696E-02  0.23664307E-08
    2    4   -0.17494684E-02 -0.40396454E-08
    3    4   -0.17494685E-02 -0.40912779E-08
    4    4    0.64333596E-02 -0.19731733E-08

   -1   -1    0
    1    1    0.38079785E-02 -0.80033792E-08
    2    1   -0.35898401E-02  0.47438623E-08
    3    1   -0.35898395E-02  0.28019334E-08
    4    1   -0.74569806E-02  0.76372573E-08
    1    2    0.39230307E-02 -0.35927884E-08
    2    2   -0.68525333E-02  0.78375868E-08
    3    2    0.24343145E-02 -0.97310371E-08
    4    2   -0.28171048E-02  0.66705338E-08
    1    3    0.39230311E-02 -0.62060568E-08
    2    3    0.24343160E-02 -0.10587097E-07
    3    3   -0.68525320E-02  0.31051788E-08
    4    3   -0.28171036E-02  0.32884505E-08
    1    4   -0.74238395E-02 -0.71227783E-08
    2    4    0.37558431E-02  0.57317232E-08
    3    4    0.37558437E-02  0.36991122E-08
    4    4    0.55736493E-02 -0.29393799E-08

   -1   -1    1
    1    1   -0.15847658E-02  0.20134084E-08
    2    1    0.24658526E-01  0.65787186E-09
    3    1    0.24658527E-01  0.88549335E-10
    4    1   -0.11453856E-01 -0.11521732E-07
    1    2    0.35054460E-02  0.42198142E-08
    2    2   -0.15847661E-02  0.27980294E-09
    3    2   -0.11453863E-01  0.76838297E-09
    4    2    0.35054476E-02 -0.81987282E-08
    1    3    0.35054474E-02  0.30256921E-08
    2    3   -0.11453863E-01 -0.35619788E-09
    3    3   -0.15847654E-02 -0.11724337E-08
    4    3    0.35054488E-02 -0.93924869E-08
    1    4   -0.11453863E-01  0.73913877E-08
    2    4    0.24658527E-01  0.62635581E-09
    3    4    0.24658528E-01  0.56668885E-10
    4    4   -0.15847652E-02 -0.11207841E-08

   -1   -1    2
    1    1    0.55736486E-02  0.63214989E-09
    2    1    0.37558470E-02 -0.16965357E-08
    3    1    0.37558465E-02 -0.15848673E-08
    4    1   -0.74238465E-02  0.12526165E-08
    1    2   -0.28171043E-02 -0.33149723E-08
    2    2   -0.68525310E-02 -0.31606593E-08
    3    2    0.24343201E-02 -0.22245643E-08
    4    2    0.39230276E-02  0.62955428E-08
    1    3   -0.28171046E-02 -0.32025716E-08
    2    3    0.24343196E-02 -0.22816057E-08
    3    3   -0.68525315E-02 -0.31259605E-08
    4    3    0.39230279E-02  0.62964214E-08
    1    4   -0.74569829E-02 -0.27410985E-08
    2    4   -0.35898407E-02  0.22589081E-08
    3    4   -0.35898409E-02  0.22293783E-08
    4    4    0.38079763E-02  0.56544699E-08

   -1   -1    3
    1    1    0.64333586E-02  0.54433863E-08
    2    1   -0.17494722E-02  0.28715703E-08
    3    1   -0.17494723E-02  0.24451194E-08
    4    1   -0.17494723E-02  0.24446053E-08
    1    2   -0.17494694E-02  0.26167180E-08
    2    2    0.64333598E-02 -0.14970506E-08
    3    2   -0.17494685E-02 -0.42143932E-08
    4    2   -0.17494685E-02 -0.42142210E-08
    1    3   -0.17494696E-02  0.23659182E-08
    2    3   -0.17494684E-02 -0.40394825E-08
    3    3    0.64333596E-02 -0.19731724E-08
    4    3   -0.17494685E-02 -0.40909377E-08
    1    4   -0.17494696E-02  0.23664307E-08
    2    4   -0.17494684E-02 -0.40396454E-08
    3    4   -0.17494685E-02 -0.40912779E-08
    4    4    0.64333596E-02 -0.19731733E-08

   -1    0   -1
    1    1    0.38079803E-02 -0.90149166E-08
    2    1   -0.74569803E-02  0.71866574E-08
    3    1   -0.35898396E-02  0.28907751E-08
    4    1   -0.35898396E-02  0.28906028E-08
    1    2   -0.74238387E-02 -0.77663901E-08
    2    2    0.55736491E-02 -0.29512828E-08
    3    2    0.37558435E-02  0.40386172E-08
    4    2    0.37558433E-02  0.40384423E-08
    1    3    0.39230315E-02 -0.50173787E-08
    2    3   -0.28171052E-02  0.60366323E-08
    3    3   -0.68525333E-02  0.59829365E-08
    4    3    0.24343146E-02 -0.94498957E-08
    1    4    0.39230315E-02 -0.50175481E-08
    2    4   -0.28171051E-02  0.60364631E-08
    3    4    0.24343148E-02 -0.94498922E-08
    4    4   -0.68525335E-02  0.59832650E-08

   -1    0    0
    1    1    0.50600384E+00  0.55203773E-08
    2    1   -0.31633764E+00  0.79569703E-08
    3    1   -0.64668311E+00 -0.27565446E-07
    4    1   -0.31633765E+00  0.90135255E-08
    1    2    0.25325787E+00  0.63815616E-08
    2    2   -0.20089274E+00 -0.85440847E-08
    3    2   -0.31633763E+00 -0.44129423E-08
    4    2   -0.13777974E+00  0.98326882E-08
    1    3   -0.41809726E+00 -0.55324114E-08
    2    3    0.25325785E+00  0.45474388E-08
    3    3    0.50600383E+00  0.12114010E-07
    4    3    0.25325786E+00  0.13606224E-08
    1    4    0.25325786E+00  0.60797316E-08
    2    4   -0.13777973E+00  0.93817970E-08
    3    4   -0.31633763E+00 -0.50996161E-08
    4    4   -0.20089275E+00 -0.90902911E-08

   -1    0    1
    1    1   -0.20089275E+00 -0.74666491E-14
    2    1   -0.13777973E+00 -0.15408920E-08
    3    1   -0.31633764E+00  0.23779533E-08
    4    1    0.25325786E+00 -0.69661425E-08
    1    2   -0.13777973E+00  0.15405451E-08
    2    2   -0.20089275E+00  0.33613721E-12
    3    2   -0.31633764E+00 -0.24060105E-08
    4    2    0.25325787E+00 -0.11150920E-07
    1    3    0.25325786E+00  0.69663140E-08
    2    3    0.25325787E+00  0.11150740E-07
    3    3    0.50600384E+00  0.17935502E-08
    4    3   -0.41809725E+00  0.16491848E-12
    1    4   -0.31633764E+00 -0.23777873E-08
    2    4   -0.31633765E+00  0.24058365E-08
    3    4   -0.64668312E+00  0.16702432E-12
    4    4    0.50600384E+00 -0.17939023E-08

   -1    0    2
    1    1   -0.68525357E-02 -0.71760820E-10
    2    1   -0.28171028E-02  0.30718001E-09
    3    1    0.24343180E-02  0.33234242E-09
    4    1    0.39230351E-02 -0.79531902E-09
    1    2    0.37558434E-02  0.17870040E-08
    2    2    0.55736466E-02 -0.35643275E-08
    3    2    0.37558451E-02 -0.15921215E-08
    4    2   -0.74238444E-02  0.88360203E-08
    1    3    0.24343188E-02  0.36724268E-08
    2    3   -0.28171063E-02  0.63263117E-08
    3    3   -0.68525289E-02 -0.12530578E-08
    4    3    0.39230221E-02 -0.46325095E-09
    1    4   -0.35898353E-02 -0.64051480E-08
    2    4   -0.74569782E-02 -0.47466171E-08
    3    4   -0.35898429E-02 -0.26633644E-08
    4    4    0.38079805E-02  0.48891490E-08

   -1    1   -2
    1    1   -0.43720096E-02 -0.32233472E-09
    2    1    0.15034402E-02 -0.26358483E-08
    3    1   -0.30372455E-03 -0.18154750E-08
    4    1    0.28720997E-02  0.56489726E-08
    1    2   -0.30372500E-03  0.15742659E-08
    2    2    0.46649768E-02  0.12378360E-08
    3    2    0.31412206E-02  0.27924953E-10
    4    2   -0.30372167E-03  0.56295395E-09
    1    3    0.15034404E-02  0.21686408E-08
    2    3   -0.24624562E-02 -0.16500031E-09
    3    3    0.46649769E-02 -0.16520468E-08
    4    3    0.15034446E-02  0.64990222E-08
    1    4    0.28720998E-02 -0.55988589E-08
    2    4    0.15034445E-02 -0.63912569E-08
    3    4   -0.30372222E-03 -0.59274987E-09
    4    4   -0.43720066E-02  0.73654718E-09

   -1    1   -1
    1    1   -0.15847645E-02  0.21297432E-08
    2    1   -0.11453854E-01 -0.13005167E-07
    3    1    0.24658526E-01  0.42280250E-09
    4    1    0.24658526E-01  0.42331409E-09
    1    2   -0.11453861E-01  0.70321999E-08
    2    2   -0.15847642E-02 -0.24566711E-08
    3    2    0.24658528E-01 -0.17788706E-09
    4    2    0.24658527E-01 -0.17806218E-09
    1    3    0.35054464E-02  0.42160718E-08
    2    3    0.35054487E-02 -0.93967390E-08
    3    3   -0.15847669E-02  0.16344431E-09
    4    3   -0.11453864E-01  0.13370968E-08
    1    4    0.35054463E-02  0.42155564E-08
    2    4    0.35054488E-02 -0.93965739E-08
    3    4   -0.11453864E-01  0.13374387E-08
    4    4   -0.15847668E-02  0.16345085E-09

   -1    1    0
    1    1   -0.20089275E+00  0.11718295E-08
    2    1    0.25325787E+00 -0.54880403E-08
    3    1   -0.31633764E+00  0.27534255E-08
    4    1   -0.13777973E+00 -0.27158227E-09
    1    2   -0.31633765E+00 -0.12033827E-08
    2    2    0.50600385E+00 -0.73719986E-09
    3    2   -0.64668312E+00  0.19243437E-08
    4    2   -0.31633764E+00  0.46378604E-08
    1    3    0.25325787E+00  0.72812077E-08
    2    3   -0.41809725E+00 -0.25122792E-08
    3    3    0.50600384E+00 -0.10595518E-08
    4    3    0.25325787E+00  0.82798718E-08
    1    4   -0.13777974E+00  0.23600180E-08
    2    4    0.25325787E+00 -0.99746481E-08
    3    4   -0.31633765E+00 -0.27172146E-08
    4    4   -0.20089275E+00  0.62491061E-09

   -1    1    1
    1    1   -0.15847658E-02 -0.20134030E-08
    2    1    0.35054462E-02 -0.42201544E-08
    3    1   -0.11453863E-01 -0.73912233E-08
    4    1    0.35054474E-02 -0.30255199E-08
    1    2    0.24658526E-01 -0.65753345E-09
    2    2   -0.15847661E-02 -0.27980065E-09
    3    2    0.24658527E-01 -0.62652788E-09
    4    2   -0.11453863E-01  0.35602698E-09
    1    3   -0.11453856E-01  0.11521551E-07
    2    3    0.35054475E-02  0.81988980E-08
    3    3   -0.15847651E-02  0.11207815E-08
    4    3    0.35054489E-02  0.93924845E-08
    1    4    0.24658527E-01 -0.88730308E-10
    2    4   -0.11453863E-01 -0.76821161E-09
    3    4    0.24658527E-01 -0.56673416E-10
    4    4   -0.15847655E-02  0.11724318E-08

   -1    1    2
    1    1   -0.43720096E-02 -0.32233468E-09
    2    1    0.15034402E-02 -0.26358484E-08
    3    1   -0.30372455E-03 -0.18154750E-08
    4    1    0.28720997E-02  0.56489726E-08
    1    2   -0.30372500E-03  0.15742659E-08
    2    2    0.46649768E-02  0.12378360E-08
    3    2    0.31412206E-02  0.27925007E-10
    4    2   -0.30372167E-03  0.56295399E-09
    1    3    0.15034404E-02  0.21686407E-08
    2    3   -0.24624562E-02 -0.16500024E-09
    3    3    0.46649769E-02 -0.16520468E-08
    4    3    0.15034446E-02  0.64990221E-08
    1    4    0.28720998E-02 -0.55988588E-08
    2    4    0.15034445E-02 -0.63912569E-08
    3    4   -0.30372222E-03 -0.59274982E-09
    4    4   -0.43720066E-02  0.73654723E-09

   -1    2   -2
    1    1    0.46649788E-02 -0.23976135E-08
    2    1   -0.30372712E-03  0.19084814E-08
    3    1    0.31412243E-02  0.32604236E-08
    4    1   -0.30372777E-03  0.22488019E-08
    1    2    0.15034438E-02 -0.25497660E-08
    2    2   -0.43720096E-02  0.30265417E-08
    3    2   -0.30372150E-03  0.35432739E-08
    4    2    0.28720991E-02 -0.77399628E-08
    1    3   -0.24624527E-02  0.56813773E-08
    2    3    0.15034436E-02  0.44823342E-08
    3    3    0.46649782E-02 -0.47136185E-08
    4    3    0.15034437E-02  0.48517164E-08
    1    4    0.15034435E-02 -0.23434757E-08
    2    4    0.28720993E-02 -0.79848594E-08
    3    4   -0.30372118E-03  0.34150758E-08
    4    4   -0.43720099E-02  0.40847074E-08

   -1    2   -1
    1    1    0.55736487E-02  0.92516655E-09
    2    1   -0.74238464E-02  0.14865144E-08
    3    1    0.37558466E-02 -0.18823141E-08
    4    1    0.37558467E-02 -0.18821407E-08
    1    2   -0.74569826E-02 -0.25195317E-08
    2    2    0.38079771E-02  0.53241898E-08
    3    2   -0.35898406E-02  0.22040641E-08
    4    2   -0.35898406E-02  0.22042422E-08
    1    3   -0.28171052E-02 -0.30467940E-08
    2    3    0.39230278E-02  0.61103181E-08
    3    3   -0.68525317E-02 -0.31245136E-08
    4    3    0.24343200E-02 -0.21237329E-08
    1    4   -0.28171052E-02 -0.30466185E-08
    2    4    0.39230279E-02  0.61104889E-08
    3    4    0.24343197E-02 -0.21237348E-08
    4    4   -0.68525316E-02 -0.31248476E-08

   -1    2    0
    1    1   -0.68525359E-02  0.18183713E-08
    2    1    0.39230355E-02  0.44333590E-09
    3    1    0.24343182E-02  0.15308310E-09
    4    1   -0.28171025E-02  0.12096078E-08
    1    2   -0.35898351E-02 -0.46065550E-08
    2    2    0.38079820E-02  0.55714390E-08
    3    2   -0.35898433E-02 -0.27764692E-08
    4    2   -0.74569777E-02 -0.40765617E-08
    1    3    0.24343174E-02  0.26941439E-08
    2    3    0.39230228E-02 -0.18380357E-08
    3    3   -0.68525302E-02 -0.41314926E-08
    4    3   -0.28171073E-02  0.37349513E-08
    1    4    0.37558433E-02  0.32936239E-08
    2    4   -0.74238433E-02  0.97135225E-08
    3    4    0.37558445E-02 -0.22290734E-08
    4    4    0.55736465E-02 -0.32583554E-08

   -1    2    1
    1    1   -0.43720099E-02  0.27324465E-14
    2    1    0.28720994E-02  0.55021673E-08
    3    1   -0.30372520E-03 -0.24405965E-08
    4    1    0.15034407E-02 -0.72482678E-09
    1    2    0.28720994E-02 -0.55018203E-08
    2    2   -0.43720065E-02 -0.33929160E-12
    3    2   -0.30372161E-03 -0.10886338E-08
    4    2    0.15034448E-02 -0.46854718E-08
    1    3    0.15034405E-02  0.72465680E-09
    2    3    0.15034449E-02  0.46856471E-08
    3    3    0.46649770E-02 -0.31475947E-08
    4    3   -0.24624559E-02 -0.16557115E-12
    1    4   -0.30372491E-03  0.24404287E-08
    2    4   -0.30372191E-03  0.10887992E-08
    3    4    0.31412206E-02 -0.17250323E-12
    4    4    0.46649770E-02  0.31479471E-08

   -1    3   -1
    1    1    0.64333586E-02  0.54433863E-08
    2    1   -0.17494722E-02  0.28715703E-08
    3    1   -0.17494723E-02  0.24451194E-08
    4    1   -0.17494723E-02  0.24446053E-08
    1    2   -0.17494694E-02  0.26167180E-08
    2    2    0.64333598E-02 -0.14970506E-08
    3    2   -0.17494685E-02 -0.42143932E-08
    4    2   -0.17494685E-02 -0.42142210E-08
    1    3   -0.17494696E-02  0.23659182E-08
    2    3   -0.17494684E-02 -0.40394825E-08
    3    3    0.64333596E-02 -0.19731724E-08
    4    3   -0.17494685E-02 -0.40909377E-08
    1    4   -0.17494696E-02  0.23664307E-08
    2    4   -0.17494684E-02 -0.40396454E-08
    3    4   -0.17494685E-02 -0.40912779E-08
    4    4    0.64333596E-02 -0.19731733E-08

    0   -2    0
    1    1    0.13729919E+00 -0.54838065E-15
    2    1   -0.14101721E+00 -0.13751652E-07
    3    1    0.15952583E-02  0.42367050E-08
    4    1    0.15952584E-02  0.42361871E-08
    1    2   -0.14101721E+00  0.13751652E-07
    2    2    0.13729919E+00 -0.53708839E-15
    3    2    0.15952643E-02  0.61442965E-08
    4    2    0.15952642E-02  0.61444604E-08
    1    3    0.15952583E-02 -0.42367051E-08
    2    3    0.15952643E-02 -0.61442967E-08
    3    3   -0.37203095E-01 -0.58070074E-15
    4    3   -0.35909493E-01  0.17052955E-12
    1    4    0.15952584E-02 -0.42361873E-08
    2    4    0.15952642E-02 -0.61444605E-08
    3    4   -0.35909493E-01 -0.17068201E-12
    4    4   -0.37203095E-01 -0.54485045E-15

    0   -2    1
    1    1   -0.68525359E-02 -0.18183854E-08
    2    1   -0.35898355E-02  0.46062080E-08
    3    1    0.37558433E-02 -0.32937904E-08
    4    1    0.24343174E-02 -0.26936298E-08
    1    2    0.39230355E-02 -0.44334166E-09
    2    2    0.38079820E-02 -0.55711151E-08
    3    2   -0.74238432E-02 -0.97136992E-08
    4    2    0.39230226E-02  0.18378558E-08
    1    3   -0.28171023E-02 -0.12094354E-08
    2    3   -0.74569777E-02  0.40763823E-08
    3    3    0.55736466E-02  0.32583504E-08
    4    3   -0.28171072E-02 -0.37349643E-08
    1    4    0.24343183E-02 -0.15326347E-09
    2    4   -0.35898435E-02  0.27766335E-08
    3    4    0.37558445E-02  0.22294094E-08
    4    4   -0.68525302E-02  0.41311118E-08

    0   -2    2
    1    1   -0.37203087E-01 -0.23146360E-16
    2    1    0.15952557E-02  0.15661138E-08
    3    1   -0.35909497E-01  0.21788218E-08
    4    1    0.15952575E-02  0.14753726E-08
    1    2    0.15952557E-02 -0.15661138E-08
    2    2    0.13729918E+00  0.11914009E-16
    3    2    0.15952584E-02 -0.46802204E-08
    4    2   -0.14101719E+00  0.79247299E-09
    1    3   -0.35909497E-01 -0.21788218E-08
    2    3    0.15952584E-02  0.46802204E-08
    3    3   -0.37203088E-01  0.14031014E-16
    4    3    0.15952569E-02  0.52351075E-08
    1    4    0.15952575E-02 -0.14753726E-08
    2    4   -0.14101719E+00 -0.79247300E-09
    3    4    0.15952569E-02 -0.52351075E-08
    4    4    0.13729918E+00  0.50921303E-17

    0   -1   -1
    1    1    0.38079785E-02 -0.80033781E-08
    2    1   -0.35898398E-02  0.47442007E-08
    3    1   -0.74569806E-02  0.76367394E-08
    4    1   -0.35898393E-02  0.28021074E-08
    1    2    0.39230307E-02 -0.35927801E-08
    2    2   -0.68525333E-02  0.78372430E-08
    3    2   -0.28171050E-02  0.66707031E-08
    4    2    0.24343144E-02 -0.97308552E-08
    1    3   -0.74238395E-02 -0.71226116E-08
    2    3    0.37558430E-02  0.57315446E-08
    3    3    0.55736492E-02 -0.29390418E-08
    4    3    0.37558436E-02  0.36987705E-08
    1    4    0.39230312E-02 -0.62062168E-08
    2    4    0.24343161E-02 -0.10586925E-07
    3    4   -0.28171038E-02  0.32884476E-08
    4    4   -0.68525320E-02  0.31051677E-08

    0   -1    0
    1    1    0.50600385E+00  0.10803499E-08
    2    1   -0.64668311E+00 -0.29489799E-07
    3    1   -0.31633765E+00  0.73578917E-08
    4    1   -0.31633765E+00  0.73577230E-08
    1    2   -0.41809727E+00 -0.30205150E-08
    2    2    0.50600382E+00  0.18351124E-07
    3    2    0.25325786E+00  0.47325504E-08
    4    2    0.25325786E+00  0.47323781E-08
    1    3    0.25325786E+00  0.44032773E-08
    2    3   -0.31633762E+00 -0.53642890E-08
    3    3   -0.20089275E+00 -0.97159437E-08
    4    3   -0.13777974E+00  0.85632049E-08
    1    4    0.25325786E+00  0.44031113E-08
    2    4   -0.31633762E+00 -0.53644591E-08
    3    4   -0.13777974E+00  0.85632065E-08
    4    4   -0.20089275E+00 -0.97155851E-08

    0   -1    1
    1    1   -0.20089275E+00 -0.11718271E-08
    2    1   -0.31633765E+00  0.12033795E-08
    3    1   -0.13777974E+00 -0.23598511E-08
    4    1    0.25325787E+00 -0.72813769E-08
    1    2    0.25325787E+00  0.54883896E-08
    2    2    0.50600385E+00  0.73686085E-09
    3    2    0.25325787E+00  0.99744765E-08
    4    2   -0.41809725E+00  0.25124487E-08
    1    3   -0.13777973E+00  0.27105572E-09
    2    3   -0.31633764E+00 -0.46376906E-08
    3    3   -0.20089275E+00 -0.62457874E-09
    4    3    0.25325787E+00 -0.82798760E-08
    1    4   -0.31633764E+00 -0.27532522E-08
    2    4   -0.64668312E+00 -0.19241802E-08
    3    4   -0.31633765E+00  0.27168725E-08
    4    4    0.50600384E+00  0.10595474E-08

    0   -1    2
    1    1   -0.68525356E-02  0.22674124E-09
    2    1    0.24343184E-02  0.40403794E-09
    3    1   -0.28171024E-02  0.68360642E-09
    4    1    0.39230348E-02 -0.70963049E-09
    1    2    0.24343188E-02  0.38015323E-08
    2    2   -0.68525283E-02 -0.98963057E-09
    3    2   -0.28171064E-02  0.65903458E-08
    4    2    0.39230218E-02 -0.37844654E-09
    1    3    0.37558432E-02  0.17783099E-08
    2    3    0.37558453E-02 -0.17121121E-08
    3    3    0.55736463E-02 -0.36124183E-08
    4    3   -0.74238446E-02  0.91405814E-08
    1    4   -0.35898354E-02 -0.66561359E-08
    2    4   -0.35898423E-02 -0.28844607E-08
    3    4   -0.74569783E-02 -0.50852708E-08
    4    4    0.38079802E-02  0.43753012E-08

    0    0   -2
    1    1    0.13729919E+00 -0.53070851E-15
    2    1    0.15952622E-02  0.42446078E-08
    3    1    0.15952603E-02  0.45474311E-08
    4    1   -0.14101721E+00 -0.12959180E-07
    1    2    0.15952622E-02 -0.42446080E-08
    2    2   -0.37203095E-01 -0.53375399E-15
    3    2   -0.35909492E-01  0.14890932E-09
    4    2    0.15952605E-02 -0.62425671E-08
    1    3    0.15952603E-02 -0.45474314E-08
    2    3   -0.35909492E-01 -0.14890947E-09
    3    3   -0.37203095E-01 -0.56004059E-15
    4    3    0.15952622E-02 -0.59011889E-08
    1    4   -0.14101721E+00  0.12959180E-07
    2    4    0.15952605E-02  0.62425669E-08
    3    4    0.15952622E-02  0.59011887E-08
    4    4    0.13729919E+00 -0.53883446E-15

    0    0   -1
    1    1    0.50600384E+00  0.55203818E-08
    2    1   -0.31633764E+00  0.79569744E-08
    3    1   -0.31633765E+00  0.90136968E-08
    4    1   -0.64668311E+00 -0.27565618E-07
    1    2    0.25325787E+00  0.63812222E-08
    2    2   -0.20089274E+00 -0.85437441E-08
    3    2   -0.13777974E+00  0.98325230E-08
    4    2   -0.31633763E+00 -0.44127765E-08
    1    3    0.25325786E+00  0.60795639E-08
    2    3   -0.13777973E+00  0.93816255E-08
    3    3   -0.20089275E+00 -0.90902906E-08
    4    3   -0.31633763E+00 -0.50992728E-08
    1    4   -0.41809726E+00 -0.55318978E-08
    2    4    0.25325785E+00  0.45472616E-08
    3    4    0.25325786E+00  0.13606206E-08
    4    4    0.50600383E+00  0.12113669E-07

    0    0    0
    1    1   -0.91438398E+01 -0.25004740E-17
    2    1   -0.12124897E+01  0.29083478E-07
    3    1   -0.12124897E+01  0.31974629E-07
    4    1   -0.12124897E+01  0.31975146E-07
    1    2   -0.12124897E+01 -0.29083478E-07
    2    2   -0.91438398E+01  0.28341885E-17
    3    2   -0.12124897E+01  0.28907732E-08
    4    2   -0.12124897E+01  0.28906072E-08
    1    3   -0.12124897E+01 -0.31974629E-07
    2    3   -0.12124897E+01 -0.28907732E-08
    3    3   -0.91438398E+01  0.27193089E-16
    4    3   -0.12124897E+01 -0.16811807E-12
    1    4   -0.12124897E+01 -0.31975146E-07
    2    4   -0.12124897E+01 -0.28906072E-08
    3    4   -0.12124897E+01  0.16811807E-12
    4    4   -0.91438398E+01  0.64810434E-17

    0    0    1
    1    1    0.50600384E+00 -0.55203818E-08
    2    1    0.25325787E+00 -0.63812222E-08
    3    1    0.25325786E+00 -0.60795639E-08
    4    1   -0.41809726E+00  0.55318978E-08
    1    2   -0.31633764E+00 -0.79569744E-08
    2    2   -0.20089274E+00  0.85437441E-08
    3    2   -0.13777973E+00 -0.93816255E-08
    4    2    0.25325785E+00 -0.45472616E-08
    1    3   -0.31633765E+00 -0.90136968E-08
    2    3   -0.13777974E+00 -0.98325230E-08
    3    3   -0.20089275E+00  0.90902906E-08
    4    3    0.25325786E+00 -0.13606206E-08
    1    4   -0.64668311E+00  0.27565618E-07
    2    4   -0.31633763E+00  0.44127765E-08
    3    4   -0.31633763E+00  0.50992728E-08
    4    4    0.50600383E+00 -0.12113669E-07

    0    0    2
    1    1    0.13729919E+00  0.51559660E-15
    2    1    0.15952622E-02  0.42446080E-08
    3    1    0.15952603E-02  0.45474314E-08
    4    1   -0.14101721E+00 -0.12959180E-07
    1    2    0.15952622E-02 -0.42446078E-08
    2    2   -0.37203095E-01  0.62157976E-15
    3    2   -0.35909492E-01  0.14890947E-09
    4    2    0.15952605E-02 -0.62425669E-08
    1    3    0.15952603E-02 -0.45474311E-08
    2    3   -0.35909492E-01 -0.14890932E-09
    3    3   -0.37203095E-01  0.59529315E-15
    4    3    0.15952622E-02 -0.59011887E-08
    1    4   -0.14101721E+00  0.12959180E-07
    2    4    0.15952605E-02  0.62425671E-08
    3    4    0.15952622E-02  0.59011889E-08
    4    4    0.13729919E+00  0.50747066E-15

    0    1   -2
    1    1   -0.68525356E-02 -0.22674107E-09
    2    1    0.24343188E-02 -0.38015323E-08
    3    1    0.37558432E-02 -0.17783099E-08
    4    1   -0.35898354E-02  0.66561359E-08
    1    2    0.24343184E-02 -0.40403794E-09
    2    2   -0.68525283E-02  0.98963043E-09
    3    2    0.37558453E-02  0.17121121E-08
    4    2   -0.35898423E-02  0.28844607E-08
    1    3   -0.28171024E-02 -0.68360642E-09
    2    3   -0.28171064E-02 -0.65903458E-08
    3    3    0.55736463E-02  0.36124183E-08
    4    3   -0.74569783E-02  0.50852708E-08
    1    4    0.39230348E-02  0.70963049E-09
    2    4    0.39230218E-02  0.37844654E-09
    3    4   -0.74238446E-02 -0.91405814E-08
    4    4    0.38079802E-02 -0.43753013E-08

    0    1   -1
    1    1   -0.20089275E+00  0.11718272E-08
    2    1    0.25325787E+00 -0.54883896E-08
    3    1   -0.13777973E+00 -0.27105572E-09
    4    1   -0.31633764E+00  0.27532522E-08
    1    2   -0.31633765E+00 -0.12033795E-08
    2    2    0.50600385E+00 -0.73686085E-09
    3    2   -0.31633764E+00  0.46376906E-08
    4    2   -0.64668312E+00  0.19241802E-08
    1    3   -0.13777974E+00  0.23598511E-08
    2    3    0.25325787E+00 -0.99744765E-08
    3    3   -0.20089275E+00  0.62457881E-09
    4    3   -0.31633765E+00 -0.27168725E-08
    1    4    0.25325787E+00  0.72813769E-08
    2    4   -0.41809725E+00 -0.25124487E-08
    3    4    0.25325787E+00  0.82798760E-08
    4    4    0.50600384E+00 -0.10595474E-08

    0    1    0
    1    1    0.50600385E+00 -0.10803498E-08
    2    1   -0.41809727E+00  0.30205150E-08
    3    1    0.25325786E+00 -0.44032773E-08
    4    1    0.25325786E+00 -0.44031113E-08
    1    2   -0.64668311E+00  0.29489799E-07
    2    2    0.50600382E+00 -0.18351124E-07
    3    2   -0.31633762E+00  0.53642890E-08
    4    2   -0.31633762E+00  0.53644591E-08
    1    3   -0.31633765E+00 -0.73578917E-08
    2    3    0.25325786E+00 -0.47325504E-08
    3    3   -0.20089275E+00  0.97159437E-08
    4    3   -0.13777974E+00 -0.85632065E-08
    1    4   -0.31633765E+00 -0.73577230E-08
    2    4    0.25325786E+00 -0.47323781E-08
    3    4   -0.13777974E+00 -0.85632049E-08
    4    4   -0.20089275E+00  0.97155851E-08

    0    1    1
    1    1    0.38079785E-02  0.80033781E-08
    2    1    0.39230307E-02  0.35927801E-08
    3    1   -0.74238395E-02  0.71226116E-08
    4    1    0.39230312E-02  0.62062168E-08
    1    2   -0.35898398E-02 -0.47442007E-08
    2    2   -0.68525333E-02 -0.78372431E-08
    3    2    0.37558430E-02 -0.57315446E-08
    4    2    0.24343161E-02  0.10586925E-07
    1    3   -0.74569806E-02 -0.76367394E-08
    2    3   -0.28171050E-02 -0.66707031E-08
    3    3    0.55736492E-02  0.29390419E-08
    4    3   -0.28171038E-02 -0.32884476E-08
    1    4   -0.35898393E-02 -0.28021074E-08
    2    4    0.24343144E-02  0.97308552E-08
    3    4    0.37558436E-02 -0.36987705E-08
    4    4   -0.68525320E-02 -0.31051677E-08

    0    2   -2
    1    1   -0.37203087E-01 -0.23146360E-16
    2    1    0.15952557E-02  0.15661138E-08
    3    1   -0.35909497E-01  0.21788218E-08
    4    1    0.15952575E-02  0.14753726E-08
    1    2    0.15952557E-02 -0.15661138E-08
    2    2    0.13729918E+00  0.35895446E-16
    3    2    0.15952584E-02 -0.46802204E-08
    4    2   -0.14101719E+00  0.79247300E-09
    1    3   -0.35909497E-01 -0.21788218E-08
    2    3    0.15952584E-02  0.46802204E-08
    3    3   -0.37203088E-01  0.14031014E-16
    4    3    0.15952569E-02  0.52351075E-08
    1    4    0.15952575E-02 -0.14753726E-08
    2    4   -0.14101719E+00 -0.79247299E-09
    3    4    0.15952569E-02 -0.52351075E-08
    4    4    0.13729918E+00 -0.18889306E-16

    0    2   -1
    1    1   -0.68525359E-02  0.18183855E-08
    2    1    0.39230355E-02  0.44334166E-09
    3    1   -0.28171023E-02  0.12094354E-08
    4    1    0.24343183E-02  0.15326347E-09
    1    2   -0.35898355E-02 -0.46062080E-08
    2    2    0.38079820E-02  0.55711150E-08
    3    2   -0.74569777E-02 -0.40763823E-08
    4    2   -0.35898435E-02 -0.27766335E-08
    1    3    0.37558433E-02  0.32937904E-08
    2    3   -0.74238432E-02  0.97136992E-08
    3    3    0.55736466E-02 -0.32583503E-08
    4    3    0.37558445E-02 -0.22294094E-08
    1    4    0.24343174E-02  0.26936298E-08
    2    4    0.39230226E-02 -0.18378558E-08
    3    4   -0.28171072E-02  0.37349643E-08
    4    4   -0.68525302E-02 -0.41311118E-08

    0    2    0
    1    1    0.13729919E+00  0.49792446E-15
    2    1   -0.14101721E+00 -0.13751652E-07
    3    1    0.15952583E-02  0.42367051E-08
    4    1    0.15952584E-02  0.42361873E-08
    1    2   -0.14101721E+00  0.13751652E-07
    2    2    0.13729919E+00  0.50921674E-15
    3    2    0.15952643E-02  0.61442967E-08
    4    2    0.15952642E-02  0.61444605E-08
    1    3    0.15952583E-02 -0.42367050E-08
    2    3    0.15952643E-02 -0.61442965E-08
    3    3   -0.37203095E-01  0.57463300E-15
    4    3   -0.35909493E-01  0.17068201E-12
    1    4    0.15952584E-02 -0.42361871E-08
    2    4    0.15952642E-02 -0.61444604E-08
    3    4   -0.35909493E-01 -0.17052955E-12
    4    4   -0.37203095E-01  0.61048330E-15

    1   -3    1
    1    1    0.64333586E-02 -0.54433863E-08
    2    1   -0.17494694E-02 -0.26167180E-08
    3    1   -0.17494696E-02 -0.23659182E-08
    4    1   -0.17494696E-02 -0.23664307E-08
    1    2   -0.17494722E-02 -0.28715703E-08
    2    2    0.64333598E-02  0.14970505E-08
    3    2   -0.17494684E-02  0.40394825E-08
    4    2   -0.17494684E-02  0.40396454E-08
    1    3   -0.17494723E-02 -0.24451194E-08
    2    3   -0.17494685E-02  0.42143932E-08
    3    3    0.64333596E-02  0.19731724E-08
    4    3   -0.17494685E-02  0.40912779E-08
    1    4   -0.17494723E-02 -0.24446053E-08
    2    4   -0.17494685E-02  0.42142210E-08
    3    4   -0.17494685E-02  0.40909377E-08
    4    4    0.64333596E-02  0.19731732E-08

    1   -2   -1
    1    1   -0.43720099E-02 -0.27856953E-14
    2    1    0.28720994E-02  0.55018203E-08
    3    1    0.15034405E-02 -0.72465680E-09
    4    1   -0.30372491E-03 -0.24404287E-08
    1    2    0.28720994E-02 -0.55021673E-08
    2    2   -0.43720065E-02  0.33928606E-12
    3    2    0.15034449E-02 -0.46856471E-08
    4    2   -0.30372191E-03 -0.10887992E-08
    1    3   -0.30372520E-03  0.24405965E-08
    2    3   -0.30372161E-03  0.10886338E-08
    3    3    0.46649770E-02  0.31475947E-08
    4    3    0.31412206E-02  0.17250323E-12
    1    4    0.15034407E-02  0.72482678E-09
    2    4    0.15034448E-02  0.46854718E-08
    3    4   -0.24624559E-02  0.16557115E-12
    4    4    0.46649770E-02 -0.31479471E-08

    1   -2    0
    1    1   -0.68525359E-02 -0.18183712E-08
    2    1   -0.35898351E-02  0.46065550E-08
    3    1    0.24343174E-02 -0.26941439E-08
    4    1    0.37558433E-02 -0.32936239E-08
    1    2    0.39230355E-02 -0.44333590E-09
    2    2    0.38079820E-02 -0.55714390E-08
    3    2    0.39230228E-02  0.18380357E-08
    4    2   -0.74238433E-02 -0.97135225E-08
    1    3    0.24343182E-02 -0.15308310E-09
    2    3   -0.35898433E-02  0.27764692E-08
    3    3   -0.68525302E-02  0.41314926E-08
    4    3    0.37558445E-02  0.22290734E-08
    1    4   -0.28171025E-02 -0.12096078E-08
    2    4   -0.74569777E-02  0.40765617E-08
    3    4   -0.28171073E-02 -0.37349513E-08
    4    4    0.55736465E-02  0.32583555E-08

    1   -2    1
    1    1    0.55736487E-02 -0.92516655E-09
    2    1   -0.74569826E-02  0.25195317E-08
    3    1   -0.28171052E-02  0.30467940E-08
    4    1   -0.28171052E-02  0.30466185E-08
    1    2   -0.74238464E-02 -0.14865144E-08
    2    2    0.38079771E-02 -0.53241898E-08
    3    2    0.39230278E-02 -0.61103181E-08
    4    2    0.39230279E-02 -0.61104889E-08
    1    3    0.37558466E-02  0.18823141E-08
    2    3   -0.35898406E-02 -0.22040641E-08
    3    3   -0.68525317E-02  0.31245135E-08
    4    3    0.24343197E-02  0.21237348E-08
    1    4    0.37558467E-02  0.18821407E-08
    2    4   -0.35898406E-02 -0.22042422E-08
    3    4    0.24343200E-02  0.21237329E-08
    4    4   -0.68525316E-02  0.31248476E-08

    1   -2    2
    1    1    0.46649788E-02  0.23976135E-08
    2    1    0.15034438E-02  0.25497660E-08
    3    1   -0.24624527E-02 -0.56813773E-08
    4    1    0.15034435E-02  0.23434757E-08
    1    2   -0.30372712E-03 -0.19084814E-08
    2    2   -0.43720096E-02 -0.30265417E-08
    3    2    0.15034436E-02 -0.44823342E-08
    4    2    0.28720993E-02  0.79848594E-08
    1    3    0.31412243E-02 -0.32604236E-08
    2    3   -0.30372150E-03 -0.35432739E-08
    3    3    0.46649782E-02  0.47136184E-08
    4    3   -0.30372118E-03 -0.34150758E-08
    1    4   -0.30372777E-03 -0.22488019E-08
    2    4    0.28720991E-02  0.77399628E-08
    3    4    0.15034437E-02 -0.48517164E-08
    4    4   -0.43720099E-02 -0.40847074E-08

    1   -1   -2
    1    1   -0.43720096E-02  0.32233463E-09
    2    1   -0.30372500E-03 -0.15742659E-08
    3    1    0.15034404E-02 -0.21686407E-08
    4    1    0.28720998E-02  0.55988588E-08
    1    2    0.15034402E-02  0.26358484E-08
    2    2    0.46649768E-02 -0.12378360E-08
    3    2   -0.24624562E-02  0.16500024E-09
    4    2    0.15034445E-02  0.63912569E-08
    1    3   -0.30372455E-03  0.18154750E-08
    2    3    0.31412206E-02 -0.27925007E-10
    3    3    0.46649769E-02  0.16520468E-08
    4    3   -0.30372222E-03  0.59274982E-09
    1    4    0.28720997E-02 -0.56489726E-08
    2    4   -0.30372167E-03 -0.56295399E-09
    3    4    0.15034446E-02 -0.64990221E-08
    4    4   -0.43720066E-02 -0.73654728E-09

    1   -1   -1
    1    1   -0.15847658E-02  0.20134030E-08
    2    1    0.24658526E-01  0.65753345E-09
    3    1   -0.11453856E-01 -0.11521551E-07
    4    1    0.24658527E-01  0.88730308E-10
    1    2    0.35054462E-02  0.42201544E-08
    2    2   -0.15847661E-02  0.27980061E-09
    3    2    0.35054475E-02 -0.81988980E-08
    4    2   -0.11453863E-01  0.76821161E-09
    1    3   -0.11453863E-01  0.73912233E-08
    2    3    0.24658527E-01  0.62652788E-09
    3    3   -0.15847651E-02 -0.11207815E-08
    4    3    0.24658527E-01  0.56673416E-10
    1    4    0.35054474E-02  0.30255199E-08
    2    4   -0.11453863E-01 -0.35602698E-09
    3    4    0.35054489E-02 -0.93924845E-08
    4    4   -0.15847655E-02 -0.11724318E-08

    1   -1    0
    1    1   -0.20089275E+00 -0.11718295E-08
    2    1   -0.31633765E+00  0.12033827E-08
    3    1    0.25325787E+00 -0.72812077E-08
    4    1   -0.13777974E+00 -0.23600180E-08
    1    2    0.25325787E+00  0.54880403E-08
    2    2    0.50600385E+00  0.73719986E-09
    3    2   -0.41809725E+00  0.25122792E-08
    4    2    0.25325787E+00  0.99746481E-08
    1    3   -0.31633764E+00 -0.27534255E-08
    2    3   -0.64668312E+00 -0.19243437E-08
    3    3    0.50600384E+00  0.10595517E-08
    4    3   -0.31633765E+00  0.27172146E-08
    1    4   -0.13777973E+00  0.27158227E-09
    2    4   -0.31633764E+00 -0.46378604E-08
    3    4    0.25325787E+00 -0.82798718E-08
    4    4   -0.20089275E+00 -0.62491061E-09

    1   -1    1
    1    1   -0.15847645E-02 -0.21297431E-08
    2    1   -0.11453861E-01 -0.70321999E-08
    3    1    0.35054464E-02 -0.42160718E-08
    4    1    0.35054463E-02 -0.42155564E-08
    1    2   -0.11453854E-01  0.13005167E-07
    2    2   -0.15847642E-02  0.24566711E-08
    3    2    0.35054487E-02  0.93967390E-08
    4    2    0.35054488E-02  0.93965739E-08
    1    3    0.24658526E-01 -0.42280250E-09
    2    3    0.24658528E-01  0.17788706E-09
    3    3   -0.15847669E-02 -0.16344424E-09
    4    3   -0.11453864E-01 -0.13374387E-08
    1    4    0.24658526E-01 -0.42331409E-09
    2    4    0.24658527E-01  0.17806218E-09
    3    4   -0.11453864E-01 -0.13370968E-08
    4    4   -0.15847668E-02 -0.16345081E-09

    1   -1    2
    1    1   -0.43720096E-02  0.32233461E-09
    2    1   -0.30372500E-03 -0.15742659E-08
    3    1    0.15034404E-02 -0.21686408E-08
    4    1    0.28720998E-02  0.55988589E-08
    1    2    0.15034402E-02  0.26358483E-08
    2    2    0.46649768E-02 -0.12378360E-08
    3    2   -0.24624562E-02  0.16500031E-09
    4    2    0.15034445E-02  0.63912569E-08
    1    3   -0.30372455E-03  0.18154750E-08
    2    3    0.31412206E-02 -0.27924953E-10
    3    3    0.46649769E-02  0.16520468E-08
    4    3   -0.30372222E-03  0.59274987E-09
    1    4    0.28720997E-02 -0.56489726E-08
    2    4   -0.30372167E-03 -0.56295395E-09
    3    4    0.15034446E-02 -0.64990222E-08
    4    4   -0.43720066E-02 -0.73654721E-09

    1    0   -2
    1    1   -0.68525357E-02  0.71760820E-10
    2    1    0.37558434E-02 -0.17870040E-08
    3    1    0.24343188E-02 -0.36724268E-08
    4    1   -0.35898353E-02  0.64051480E-08
    1    2   -0.28171028E-02 -0.30718001E-09
    2    2    0.55736466E-02  0.35643275E-08
    3    2   -0.28171063E-02 -0.63263117E-08
    4    2   -0.74569782E-02  0.47466171E-08
    1    3    0.24343180E-02 -0.33234242E-09
    2    3    0.37558451E-02  0.15921215E-08
    3    3   -0.68525289E-02  0.12530578E-08
    4    3   -0.35898429E-02  0.26633644E-08
    1    4    0.39230351E-02  0.79531902E-09
    2    4   -0.74238444E-02 -0.88360203E-08
    3    4    0.39230221E-02  0.46325095E-09
    4    4    0.38079805E-02 -0.48891490E-08

    1    0   -1
    1    1   -0.20089275E+00  0.74658505E-14
    2    1   -0.13777973E+00 -0.15405451E-08
    3    1    0.25325786E+00 -0.69663140E-08
    4    1   -0.31633764E+00  0.23777873E-08
    1    2   -0.13777973E+00  0.15408920E-08
    2    2   -0.20089275E+00 -0.33604732E-12
    3    2    0.25325787E+00 -0.11150740E-07
    4    2   -0.31633765E+00 -0.24058365E-08
    1    3   -0.31633764E+00 -0.23779533E-08
    2    3   -0.31633764E+00  0.24060105E-08
    3    3    0.50600384E+00 -0.17935502E-08
    4    3   -0.64668312E+00 -0.16702432E-12
    1    4    0.25325786E+00  0.69661425E-08
    2    4    0.25325787E+00  0.11150920E-07
    3    4   -0.41809725E+00 -0.16491848E-12
    4    4    0.50600384E+00  0.17939023E-08

    1    0    0
    1    1    0.50600384E+00 -0.55203773E-08
    2    1    0.25325787E+00 -0.63815616E-08
    3    1   -0.41809726E+00  0.55324114E-08
    4    1    0.25325786E+00 -0.60797316E-08
    1    2   -0.31633764E+00 -0.79569703E-08
    2    2   -0.20089274E+00  0.85440847E-08
    3    2    0.25325785E+00 -0.45474388E-08
    4    2   -0.13777973E+00 -0.93817970E-08
    1    3   -0.64668311E+00  0.27565446E-07
    2    3   -0.31633763E+00  0.44129423E-08
    3    3    0.50600383E+00 -0.12114010E-07
    4    3   -0.31633763E+00  0.50996161E-08
    1    4   -0.31633765E+00 -0.90135255E-08
    2    4   -0.13777974E+00 -0.98326882E-08
    3    4    0.25325786E+00 -0.13606224E-08
    4    4   -0.20089275E+00  0.90902911E-08

    1    0    1
    1    1    0.38079803E-02  0.90149166E-08
    2    1   -0.74238387E-02  0.77663901E-08
    3    1    0.39230315E-02  0.50173787E-08
    4    1    0.39230315E-02  0.50175481E-08
    1    2   -0.74569803E-02 -0.71866574E-08
    2    2    0.55736491E-02  0.29512831E-08
    3    2   -0.28171052E-02 -0.60366323E-08
    4    2   -0.28171051E-02 -0.60364631E-08
    1    3   -0.35898396E-02 -0.28907751E-08
    2    3    0.37558435E-02 -0.40386172E-08
    3    3   -0.68525333E-02 -0.59829365E-08
    4    3    0.24343148E-02  0.94498922E-08
    1    4   -0.35898396E-02 -0.28906028E-08
    2    4    0.37558433E-02 -0.40384423E-08
    3    4    0.24343146E-02  0.94498957E-08
    4    4   -0.68525335E-02 -0.59832650E-08

    1    1   -3
    1    1    0.64333586E-02 -0.54433863E-08
    2    1   -0.17494694E-02 -0.26167180E-08
    3    1   -0.17494696E-02 -0.23659182E-08
    4    1   -0.17494696E-02 -0.23664307E-08
    1    2   -0.17494722E-02 -0.28715703E-08
    2    2    0.64333598E-02  0.14970506E-08
    3    2   -0.17494684E-02  0.40394825E-08
    4    2   -0.17494684E-02  0.40396454E-08
    1    3   -0.17494723E-02 -0.24451194E-08
    2    3   -0.17494685E-02  0.42143932E-08
    3    3    0.64333596E-02  0.19731724E-08
    4    3   -0.17494685E-02  0.40912779E-08
    1    4   -0.17494723E-02 -0.24446053E-08
    2    4   -0.17494685E-02  0.42142210E-08
    3    4   -0.17494685E-02  0.40909377E-08
    4    4    0.64333596E-02  0.19731733E-08

    1    1   -2
    1    1    0.55736486E-02 -0.63214989E-09
    2    1   -0.28171043E-02  0.33149723E-08
    3    1   -0.28171046E-02  0.32025716E-08
    4    1   -0.74569829E-02  0.27410985E-08
    1    2    0.37558470E-02  0.16965357E-08
    2    2   -0.68525310E-02  0.31606593E-08
    3    2    0.24343196E-02  0.22816057E-08
    4    2   -0.35898407E-02 -0.22589081E-08
    1    3    0.37558465E-02  0.15848673E-08
    2    3    0.24343201E-02  0.22245643E-08
    3    3   -0.68525315E-02  0.31259605E-08
    4    3   -0.35898409E-02 -0.22293783E-08
    1    4   -0.74238465E-02 -0.12526165E-08
    2    4    0.39230276E-02 -0.62955428E-08
    3    4    0.39230279E-02 -0.62964214E-08
    4    4    0.38079763E-02 -0.56544699E-08

    1    1   -1
    1    1   -0.15847658E-02 -0.20134084E-08
    2    1    0.35054460E-02 -0.42198142E-08
    3    1    0.35054474E-02 -0.30256921E-08
    4    1   -0.11453863E-01 -0.73913877E-08
    1    2    0.24658526E-01 -0.65787186E-09
    2    2   -0.15847661E-02 -0.27980296E-09
    3    2   -0.11453863E-01  0.35619788E-09
    4    2    0.24658527E-01 -0.62635581E-09
    1    3    0.24658527E-01 -0.88549335E-10
    2    3   -0.11453863E-01 -0.76838297E-09
    3    3   -0.15847654E-02  0.11724337E-08
    4    3    0.24658528E-01 -0.56668885E-10
    1    4   -0.11453856E-01  0.11521732E-07
    2    4    0.35054476E-02  0.81987282E-08
    3    4    0.35054488E-02  0.93924869E-08
    4    4   -0.15847652E-02  0.11207841E-08

    1    1    0
    1    1    0.38079785E-02  0.80033793E-08
    2    1    0.39230307E-02  0.35927884E-08
    3    1    0.39230311E-02  0.62060568E-08
    4    1   -0.74238395E-02  0.71227783E-08
    1    2   -0.35898401E-02 -0.47438623E-08
    2    2   -0.68525333E-02 -0.78375868E-08
    3    2    0.24343160E-02  0.10587097E-07
    4    2    0.37558431E-02 -0.57317232E-08
    1    3   -0.35898395E-02 -0.28019334E-08
    2    3    0.24343145E-02  0.97310371E-08
    3    3   -0.68525320E-02 -0.31051787E-08
    4    3    0.37558437E-02 -0.36991122E-08
    1    4   -0.74569806E-02 -0.76372573E-08
    2    4   -0.28171048E-02 -0.66705338E-08
    3    4   -0.28171036E-02 -0.32884505E-08
    4    4    0.55736493E-02  0.29393799E-08

    1    1    1
    1    1    0.64333586E-02 -0.54433863E-08
    2    1   -0.17494694E-02 -0.26167179E-08
    3    1   -0.17494696E-02 -0.23659182E-08
    4    1   -0.17494696E-02 -0.23664307E-08
    1    2   -0.17494722E-02 -0.28715703E-08
    2    2    0.64333598E-02  0.14970506E-08
    3    2   -0.17494684E-02  0.40394825E-08
    4    2   -0.17494684E-02  0.40396454E-08
    1    3   -0.17494723E-02 -0.24451194E-08
    2    3   -0.17494685E-02  0.42143932E-08
    3    3    0.64333596E-02  0.19731725E-08
    4    3   -0.17494685E-02  0.40912779E-08
    1    4   -0.17494723E-02 -0.24446053E-08
    2    4   -0.17494685E-02  0.42142210E-08
    3    4   -0.17494685E-02  0.40909377E-08
    4    4    0.64333596E-02  0.19731733E-08

    1    2   -2
    1    1    0.46649788E-02  0.23976135E-08
    2    1    0.15034438E-02  0.25497660E-08
    3    1   -0.24624527E-02 -0.56813773E-08
    4    1    0.15034435E-02  0.23434757E-08
    1    2   -0.30372712E-03 -0.19084814E-08
    2    2   -0.43720096E-02 -0.30265416E-08
    3    2    0.15034436E-02 -0.44823342E-08
    4    2    0.28720993E-02  0.79848594E-08
    1    3    0.31412243E-02 -0.32604236E-08
    2    3   -0.30372150E-03 -0.35432739E-08
    3    3    0.46649782E-02  0.47136185E-08
    4    3   -0.30372118E-03 -0.34150758E-08
    1    4   -0.30372777E-03 -0.22488019E-08
    2    4    0.28720991E-02  0.77399628E-08
    3    4    0.15034437E-02 -0.48517164E-08
    4    4   -0.43720099E-02 -0.40847074E-08

    1    2   -1
    1    1   -0.43720099E-02 -0.27076463E-14
    2    1    0.28720994E-02  0.55018203E-08
    3    1    0.15034405E-02 -0.72465682E-09
    4    1   -0.30372491E-03 -0.24404286E-08
    1    2    0.28720994E-02 -0.55021672E-08
    2    2   -0.43720065E-02  0.33933222E-12
    3    2    0.15034449E-02 -0.46856471E-08
    4    2   -0.30372191E-03 -0.10887992E-08
    1    3   -0.30372520E-03  0.24405965E-08
    2    3   -0.30372161E-03  0.10886339E-08
    3    3    0.46649770E-02  0.31475946E-08
    4    3    0.31412206E-02  0.17255421E-12
    1    4    0.15034407E-02  0.72482675E-09
    2    4    0.15034448E-02  0.46854717E-08
    3    4   -0.24624559E-02  0.16564989E-12
    4    4    0.46649770E-02 -0.31479472E-08

    2   -2   -2
    1    1    0.34346073E-02 -0.38375277E-17
    2    1   -0.82717074E-03  0.29622881E-09
    3    1   -0.82717096E-03  0.54530929E-09
    4    1   -0.82717109E-03  0.54582059E-09
    1    2   -0.82717074E-03 -0.29622883E-09
    2    2    0.34346100E-02 -0.10849136E-16
    3    2   -0.82717836E-03  0.24870950E-09
    4    2   -0.82717823E-03  0.24853857E-09
    1    3   -0.82717096E-03 -0.54530927E-09
    2    3   -0.82717836E-03 -0.24870951E-09
    3    3    0.34346101E-02  0.32486789E-17
    4    3   -0.82717802E-03 -0.17441284E-12
    1    4   -0.82717109E-03 -0.54582059E-09
    2    4   -0.82717823E-03 -0.24853854E-09
    3    4   -0.82717802E-03  0.17438962E-12
    4    4    0.34346101E-02 -0.14839470E-16

    2   -2   -1
    1    1    0.46649789E-02 -0.23976193E-08
    2    1   -0.30372741E-03  0.19088320E-08
    3    1   -0.30372754E-03  0.22489699E-08
    4    1    0.31412241E-02  0.32599091E-08
    1    2    0.15034436E-02 -0.25497556E-08
    2    2   -0.43720096E-02  0.30261979E-08
    3    2    0.28720993E-02 -0.77397831E-08
    4    2   -0.30372128E-03  0.35434534E-08
    1    3    0.15034433E-02 -0.23436460E-08
    2    3    0.28720994E-02 -0.79846790E-08
    3    3   -0.43720099E-02  0.40847056E-08
    4    3   -0.30372145E-03  0.34150806E-08
    1    4   -0.24624529E-02  0.56815419E-08
    2    4    0.15034435E-02  0.44821647E-08
    3    4    0.15034436E-02  0.48513726E-08
    4    4    0.46649782E-02 -0.47132848E-08

    2   -2    0
    1    1   -0.37203087E-01  0.19835822E-16
    2    1    0.15952557E-02  0.15657683E-08
    3    1    0.15952577E-02  0.14755437E-08
    4    1   -0.35909497E-01  0.21789938E-08
    1    2    0.15952557E-02 -0.15657683E-08
    2    2    0.13729918E+00 -0.18802383E-16
    3    2   -0.14101719E+00  0.79230147E-09
    4    2    0.15952588E-02 -0.46803946E-08
    1    3    0.15952577E-02 -0.14755437E-08
    2    3   -0.14101719E+00 -0.79230147E-09
    3    3    0.13729918E+00  0.86497600E-17
    4    3    0.15952567E-02 -0.52351107E-08
    1    4   -0.35909497E-01 -0.21789938E-08
    2    4    0.15952588E-02  0.46803946E-08
    3    4    0.15952567E-02  0.52351108E-08
    4    4   -0.37203088E-01  0.17459232E-17

    2   -2    1
    1    1    0.46649789E-02  0.23976192E-08
    2    1    0.15034436E-02  0.25497556E-08
    3    1    0.15034433E-02  0.23436460E-08
    4    1   -0.24624529E-02 -0.56815419E-08
    1    2   -0.30372741E-03 -0.19088320E-08
    2    2   -0.43720096E-02 -0.30261979E-08
    3    2    0.28720994E-02  0.79846790E-08
    4    2    0.15034435E-02 -0.44821647E-08
    1    3   -0.30372754E-03 -0.22489699E-08
    2    3    0.28720993E-02  0.77397831E-08
    3    3   -0.43720099E-02 -0.40847056E-08
    4    3    0.15034436E-02 -0.48513726E-08
    1    4    0.31412241E-02 -0.32599091E-08
    2    4   -0.30372128E-03 -0.35434534E-08
    3    4   -0.30372145E-03 -0.34150806E-08
    4    4    0.46649782E-02  0.47132848E-08

    2   -2    2
    1    1    0.34346073E-02  0.83779982E-18
    2    1   -0.82717074E-03  0.29622881E-09
    3    1   -0.82717096E-03  0.54530927E-09
    4    1   -0.82717109E-03  0.54582058E-09
    1    2   -0.82717074E-03 -0.29622883E-09
    2    2    0.34346100E-02 -0.25330748E-16
    3    2   -0.82717836E-03  0.24870951E-09
    4    2   -0.82717823E-03  0.24853856E-09
    1    3   -0.82717096E-03 -0.54530927E-09
    2    3   -0.82717836E-03 -0.24870949E-09
    3    3    0.34346101E-02 -0.11232931E-16
    4    3   -0.82717802E-03 -0.17441097E-12
    1    4   -0.82717109E-03 -0.54582058E-09
    2    4   -0.82717823E-03 -0.24853854E-09
    3    4   -0.82717802E-03  0.17438456E-12
    4    4    0.34346101E-02 -0.10164142E-16

    2   -1   -2
    1    1    0.46649789E-02 -0.21611666E-08
    2    1    0.31412239E-02  0.32328695E-08
    3    1   -0.30372790E-03  0.23143974E-08
    4    1   -0.30372761E-03  0.23145674E-08
    1    2   -0.24624529E-02  0.58463702E-08
    2    2    0.46649779E-02 -0.45362324E-08
    3    2    0.15034438E-02  0.47532276E-08
    4    2    0.15034437E-02  0.47533962E-08
    1    3    0.15034437E-02 -0.23530956E-08
    2    3   -0.30372101E-03  0.33785648E-08
    3    3   -0.43720096E-02  0.33488695E-08
    4    3    0.28720990E-02 -0.78876538E-08
    1    4    0.15034439E-02 -0.23529280E-08
    2    4   -0.30372130E-03  0.33787401E-08
    3    4    0.28720990E-02 -0.78876514E-08
    4    4   -0.43720096E-02  0.33485311E-08

    2   -1   -1
    1    1    0.55736486E-02  0.63215005E-09
    2    1    0.37558469E-02 -0.16965353E-08
    3    1   -0.74238465E-02  0.12524455E-08
    4    1    0.37558465E-02 -0.15847012E-08
    1    2   -0.28171044E-02 -0.33153138E-08
    2    2   -0.68525310E-02 -0.31603195E-08
    3    2    0.39230277E-02  0.62957107E-08
    4    2    0.24343202E-02 -0.22247387E-08
    1    3   -0.74569829E-02 -0.27405814E-08
    2    3   -0.35898405E-02  0.22587415E-08
    3    3    0.38079764E-02  0.56541321E-08
    4    3   -0.35898405E-02  0.22293847E-08
    1    4   -0.28171048E-02 -0.32027440E-08
    2    4    0.24343196E-02 -0.22817731E-08
    3    4    0.39230279E-02  0.62967691E-08
    4    4   -0.68525315E-02 -0.31259660E-08

    2   -1    0
    1    1   -0.68525355E-02  0.22674196E-09
    2    1    0.24343182E-02  0.40438785E-09
    3    1    0.39230348E-02 -0.70980739E-09
    4    1   -0.28171026E-02  0.68343747E-09
    1    2    0.24343190E-02  0.38018801E-08
    2    2   -0.68525285E-02 -0.99031047E-09
    3    2    0.39230217E-02 -0.37827608E-09
    4    2   -0.28171064E-02  0.65905090E-08
    1    3   -0.35898354E-02 -0.66563069E-08
    2    3   -0.35898423E-02 -0.28842909E-08
    3    3    0.38079801E-02  0.43756429E-08
    4    3   -0.74569783E-02 -0.50856148E-08
    1    4    0.37558434E-02  0.17781367E-08
    2    4    0.37558451E-02 -0.17119413E-08
    3    4   -0.74238446E-02  0.91402366E-08
    4    4    0.55736464E-02 -0.36120767E-08

    2   -1    1
    1    1   -0.43720096E-02  0.32232776E-09
    2    1   -0.30372472E-03 -0.15746111E-08
    3    1    0.28720997E-02  0.55993720E-08
    4    1    0.15034405E-02 -0.21688289E-08
    1    2    0.15034403E-02  0.26358321E-08
    2    2    0.46649768E-02 -0.12375055E-08
    3    2    0.15034447E-02  0.63910938E-08
    4    2   -0.24624559E-02  0.16482158E-09
    1    3    0.28720995E-02 -0.56491451E-08
    2    3   -0.30372189E-03 -0.56277485E-09
    3    3   -0.43720066E-02 -0.73689738E-09
    4    3    0.15034448E-02 -0.64986816E-08
    1    4   -0.30372477E-03  0.18156364E-08
    2    4    0.31412209E-02 -0.28088314E-10
    3    4   -0.30372194E-03  0.59275072E-09
    4    4    0.46649769E-02  0.16520516E-08

    2    0   -2
    1    1   -0.37203086E-01  0.13968242E-16
    2    1   -0.35909497E-01  0.20299083E-08
    3    1    0.15952565E-02  0.13409641E-08
    4    1    0.15952566E-02  0.13404460E-08
    1    2   -0.35909497E-01 -0.20299083E-08
    2    2   -0.37203089E-01 -0.24543685E-16
    3    2    0.15952579E-02  0.47582716E-08
    4    2    0.15952577E-02  0.47584428E-08
    1    3    0.15952565E-02 -0.13409641E-08
    2    3    0.15952579E-02 -0.47582716E-08
    3    3    0.13729918E+00  0.66268205E-18
    4    3   -0.14101719E+00  0.17165355E-12
    1    4    0.15952566E-02 -0.13404460E-08
    2    4    0.15952577E-02 -0.47584427E-08
    3    4   -0.14101719E+00 -0.17162579E-12
    4    4    0.13729918E+00 -0.18828377E-16

    2    0   -1
    1    1   -0.68525357E-02 -0.71751161E-10
    2    1   -0.28171027E-02  0.30684167E-09
    3    1    0.39230350E-02 -0.79549199E-09
    4    1    0.24343179E-02  0.33285356E-09
    1    2    0.37558434E-02  0.17870059E-08
    2    2    0.55736466E-02 -0.35639836E-08
    3    2   -0.74238444E-02  0.88358453E-08
    4    2    0.37558451E-02 -0.15922949E-08
    1    3   -0.35898355E-02 -0.64049682E-08
    2    3   -0.74569782E-02 -0.47467919E-08
    3    3    0.38079805E-02  0.48891498E-08
    4    3   -0.35898432E-02 -0.26633707E-08
    1    4    0.24343189E-02  0.36722582E-08
    2    4   -0.28171060E-02  0.63264776E-08
    3    4    0.39230221E-02 -0.46291355E-09
    4    4   -0.68525289E-02 -0.12534026E-08

    2    0    0
    1    1    0.13729919E+00  0.53615369E-15
    2    1    0.15952621E-02  0.42449442E-08
    3    1   -0.14101721E+00 -0.12959344E-07
    4    1    0.15952604E-02  0.45472662E-08
    1    2    0.15952621E-02 -0.42449441E-08
    2    2   -0.37203095E-01  0.58711237E-15
    3    2    0.15952604E-02 -0.62423897E-08
    4    2   -0.35909493E-01  0.14909025E-09
    1    3   -0.14101721E+00  0.12959344E-07
    2    3    0.15952604E-02  0.62423898E-08
    3    3    0.13729919E+00  0.52098986E-15
    4    3    0.15952619E-02  0.59011927E-08
    1    4    0.15952604E-02 -0.45472660E-08
    2    4   -0.35909493E-01 -0.14909011E-09
    3    4    0.15952619E-02 -0.59011926E-08
    4    4   -0.37203095E-01  0.56900862E-15

    2    1   -2
    1    1    0.46649789E-02  0.21611666E-08
    2    1   -0.24624529E-02 -0.58463702E-08
    3    1    0.15034437E-02  0.23530956E-08
    4    1    0.15034439E-02  0.23529280E-08
    1    2    0.31412239E-02 -0.32328695E-08
    2    2    0.46649779E-02  0.45362324E-08
    3    2   -0.30372101E-03 -0.33785648E-08
    4    2   -0.30372130E-03 -0.33787401E-08
    1    3   -0.30372790E-03 -0.23143974E-08
    2    3    0.15034438E-02 -0.47532276E-08
    3    3   -0.43720096E-02 -0.33488695E-08
    4    3    0.28720990E-02  0.78876514E-08
    1    4   -0.30372761E-03 -0.23145675E-08
    2    4    0.15034437E-02 -0.47533962E-08
    3    4    0.28720990E-02  0.78876537E-08
    4    4   -0.43720096E-02 -0.33485312E-08

    2    1   -1
    1    1   -0.43720096E-02 -0.32232768E-09
    2    1    0.15034403E-02 -0.26358321E-08
    3    1    0.28720995E-02  0.56491452E-08
    4    1   -0.30372477E-03 -0.18156363E-08
    1    2   -0.30372472E-03  0.15746111E-08
    2    2    0.46649768E-02  0.12375054E-08
    3    2   -0.30372189E-03  0.56277489E-09
    4    2    0.31412209E-02  0.28088353E-10
    1    3    0.28720997E-02 -0.55993720E-08
    2    3    0.15034447E-02 -0.63910938E-08
    3    3   -0.43720066E-02  0.73689750E-09
    4    3   -0.30372194E-03 -0.59275069E-09
    1    4    0.15034405E-02  0.21688289E-08
    2    4   -0.24624559E-02 -0.16482151E-09
    3    4    0.15034448E-02  0.64986815E-08
    4    4    0.46649769E-02 -0.16520515E-08

    2    2   -2
    1    1    0.34346073E-02  0.83779974E-18
    2    1   -0.82717074E-03  0.29622883E-09
    3    1   -0.82717096E-03  0.54530928E-09
    4    1   -0.82717109E-03  0.54582057E-09
    1    2   -0.82717074E-03 -0.29622881E-09
    2    2    0.34346100E-02 -0.61738081E-17
    3    2   -0.82717836E-03  0.24870948E-09
    4    2   -0.82717823E-03  0.24853856E-09
    1    3   -0.82717096E-03 -0.54530926E-09
    2    3   -0.82717836E-03 -0.24870951E-09
    3    3    0.34346101E-02 -0.11232932E-16
    4    3   -0.82717802E-03 -0.17439179E-12
    1    4   -0.82717109E-03 -0.54582059E-09
    2    4   -0.82717823E-03 -0.24853855E-09
    3    4   -0.82717802E-03  0.17441067E-12
    4    4    0.34346101E-02 -0.29321081E-16

    3   -1   -1
    1    1    0.64333586E-02  0.54433863E-08
    2    1   -0.17494722E-02  0.28715703E-08
    3    1   -0.17494723E-02  0.24451194E-08
    4    1   -0.17494723E-02  0.24446053E-08
    1    2   -0.17494694E-02  0.26167179E-08
    2    2    0.64333598E-02 -0.14970506E-08
    3    2   -0.17494685E-02 -0.42143932E-08
    4    2   -0.17494685E-02 -0.42142210E-08
    1    3   -0.17494696E-02  0.23659182E-08
    2    3   -0.17494684E-02 -0.40394825E-08
    3    3    0.64333596E-02 -0.19731724E-08
    4    3   -0.17494685E-02 -0.40909377E-08
    1    4   -0.17494696E-02  0.23664307E-08
    2    4   -0.17494684E-02 -0.40396454E-08
    3    4   -0.17494685E-02 -0.40912779E-08
    4    4    0.64333596E-02 -0.19731733E-08

   -3    1    1
    1    1    0.10608690E-02  0.18007412E-09 -0.10608691E-02 -0.17748694E-09 -0.10608691E-02 -0.17748707E-09
    2    1    0.67354221E-04  0.34076233E-09  0.38739754E-03 -0.14349186E-09  0.38739759E-03 -0.14349186E-09
    3    1   -0.38739755E-03  0.11606705E-09 -0.67354236E-04  0.52933085E-10  0.38739751E-03 -0.80843123E-10
    4    1   -0.38739761E-03  0.11606647E-09  0.38739755E-03 -0.80843152E-10 -0.67354194E-04  0.52932911E-10
    1    2    0.67354528E-04 -0.33630400E-09 -0.38739732E-03 -0.19139117E-09 -0.38739737E-03 -0.19139091E-09
    2    2    0.10608690E-02 -0.23570359E-09  0.10608690E-02 -0.14348646E-09  0.10608690E-02 -0.14348621E-09
    3    2   -0.38739776E-03 -0.53736709E-10 -0.38739747E-03 -0.27433262E-09  0.67354033E-04  0.17893987E-09
    4    2   -0.38739770E-03 -0.53736614E-10  0.67354076E-04  0.17894006E-09 -0.38739743E-03 -0.27433274E-09
    1    3    0.38739718E-03 -0.26524386E-09 -0.67354551E-04  0.68690767E-09 -0.38739745E-03 -0.18684933E-09
    2    3    0.38739759E-03 -0.24495133E-09  0.38739779E-03  0.21769684E-10  0.67354096E-04  0.22203178E-09
    3    3   -0.10608691E-02  0.16834387E-09 -0.10608692E-02  0.23068122E-09  0.10608690E-02 -0.13587647E-09
    4    3   -0.67354144E-04 -0.32281511E-09  0.38739756E-03  0.43210229E-10 -0.38739749E-03 -0.22858280E-09
    1    4    0.38739723E-03 -0.26524392E-09 -0.38739748E-03 -0.18684939E-09 -0.67354508E-04  0.68690758E-09
    2    4    0.38739753E-03 -0.24495145E-09  0.67354138E-04  0.22203180E-09  0.38739775E-03  0.21769547E-10
    3    4   -0.67354144E-04 -0.32281517E-09 -0.38739744E-03 -0.22858235E-09  0.38739761E-03  0.43210186E-10
    4    4   -0.10608691E-02  0.16834388E-09  0.10608691E-02 -0.13587677E-09 -0.10608691E-02  0.23068126E-09

   -2   -2    2
    1    1    0.13927667E-09  0.26778932E-18 -0.81352509E-10 -0.26778942E-18 -0.81352442E-10 -0.12502376E-18
    2    1    0.11902933E-09 -0.24654633E-09 -0.19296337E-04  0.99665590E-10 -0.19296369E-04  0.99665529E-10
    3    1    0.19296424E-04 -0.22864862E-10 -0.38942655E-10  0.14677865E-09 -0.19296378E-04  0.59477853E-10
    4    1    0.19296416E-04 -0.22864925E-10 -0.19296419E-04  0.59478069E-10 -0.38808766E-10  0.14677870E-09
    1    2   -0.40232266E-10 -0.32208214E-09  0.19296393E-04 -0.66178261E-10  0.19296425E-04 -0.66178295E-10
    2    2   -0.71521680E-11  0.26778934E-18  0.63703739E-10  0.44330048E-18  0.63703728E-10 -0.50487519E-19
    3    2    0.19296484E-04 -0.11991787E-09  0.19296540E-04  0.14695254E-10  0.68678823E-10 -0.12924011E-09
    4    2    0.19296492E-04 -0.11991795E-09  0.68452173E-10 -0.12924015E-09  0.19296499E-04  0.14695255E-10
    1    3   -0.19296408E-04 -0.11224881E-09  0.85007873E-11  0.28691168E-09  0.19296407E-04  0.13471684E-09
    2    3   -0.19296439E-04 -0.15293438E-09 -0.19296533E-04 -0.41764527E-11  0.10725560E-10 -0.19383733E-09
    3    3   -0.26694394E-10 -0.44330053E-18 -0.26289218E-10 -0.26778928E-18  0.14167691E-10 -0.50487357E-19
    4    3   -0.15967960E-10  0.95378976E-10 -0.19296404E-04  0.10847588E-09  0.19296466E-04  0.62750135E-10
    1    4   -0.19296400E-04 -0.11224881E-09  0.19296448E-04  0.13471716E-09  0.83668452E-11  0.28691171E-09
    2    4   -0.19296447E-04 -0.15293448E-09  0.10952380E-10 -0.19383730E-09 -0.19296492E-04 -0.41763439E-11
    3    4   -0.15081478E-10  0.95378953E-10  0.19296434E-04  0.62750356E-10 -0.19296436E-04  0.10847574E-09
    4    4   -0.26694387E-10 -0.50487397E-19  0.14167730E-10  0.50487460E-19 -0.26289125E-10  0.26778939E-18

   -2   -1    1
    1    1    0.75319182E-10  0.71302209E-11 -0.89169049E-03 -0.30546061E-12  0.93455519E-11  0.25906561E-10
    2    1    0.22992707E-02  0.16078470E-09  0.49926985E-03  0.43459637E-10 -0.25278774E-02 -0.76797623E-10
    3    1    0.33448953E-03 -0.10073849E-09  0.92698906E-03 -0.35185801E-09 -0.15999402E-02 -0.58293290E-10
    4    1   -0.23505233E-02  0.45316463E-12 -0.13533875E-02 -0.15679284E-10  0.25224595E-02  0.54250960E-10
    1    2    0.24892480E-02  0.72264380E-11  0.38169608E-03 -0.11989456E-09 -0.23837347E-02  0.17913965E-09
    2    2    0.11321310E-02 -0.45830877E-10  0.63457403E-03 -0.38276783E-10  0.11321310E-02  0.85264011E-10
    3    2   -0.23837345E-02 -0.50782800E-11  0.38169595E-03  0.23776281E-09  0.24892483E-02 -0.14820096E-09
    4    2    0.63902937E-03 -0.10643851E-09  0.12954770E-02  0.14710314E-09  0.63902941E-03  0.10611332E-09
    1    3   -0.15999399E-02 -0.26031426E-09  0.92698882E-03 -0.14916208E-09  0.33448941E-03 -0.22798439E-09
    2    3   -0.25278771E-02 -0.28597054E-09  0.49926981E-03 -0.10815615E-10  0.22992708E-02  0.56091327E-10
    3    3   -0.74044499E-10 -0.20581068E-11 -0.89169045E-03  0.18332604E-10  0.62588653E-10 -0.18335900E-10
    4    3    0.25224596E-02  0.39045118E-09 -0.13533874E-02 -0.17721556E-11 -0.23505232E-02 -0.14769690E-09
    1    4   -0.20186790E-02  0.32593294E-09 -0.79244718E-03  0.43423657E-10  0.28084692E-02  0.28541401E-10
    2    4   -0.77086412E-03  0.11891433E-09  0.42427917E-03  0.10728098E-09 -0.77086404E-03  0.28216860E-10
    3    4    0.28084690E-02 -0.46376711E-10 -0.79244727E-03  0.19234509E-09 -0.20186789E-02  0.35802063E-09
    4    4   -0.11321310E-02 -0.17186988E-10  0.63457412E-03  0.44724003E-10 -0.11321310E-02 -0.22793228E-10

   -2   -1    2
    1    1    0.63457407E-03 -0.80398233E-11 -0.11321312E-02  0.12687935E-09 -0.11321312E-02  0.12687938E-09
    2    1    0.42427915E-03 -0.12021583E-09 -0.77086415E-03  0.22071110E-09 -0.77086414E-03  0.22071072E-09
    3    1   -0.79244722E-03 -0.24543029E-11  0.28084690E-02  0.21620185E-09 -0.20186787E-02 -0.76313851E-10
    4    1   -0.79244720E-03 -0.24544376E-11 -0.20186787E-02 -0.76313623E-10  0.28084690E-02  0.21620186E-09
    1    2    0.12954772E-02 -0.79947725E-10  0.63902928E-03  0.22080489E-09  0.63902932E-03  0.22080498E-09
    2    2    0.63457417E-03  0.12026129E-09  0.11321309E-02  0.20500708E-09  0.11321309E-02  0.20500705E-09
    3    2    0.38169600E-03 -0.43866060E-10 -0.23837345E-02 -0.19743454E-10  0.24892480E-02  0.15744331E-09
    4    2    0.38169601E-03 -0.43866011E-10  0.24892480E-02  0.15744377E-09 -0.23837345E-02 -0.19743183E-10
    1    3   -0.13533875E-02 -0.14893796E-09  0.25224596E-02 -0.35948953E-10 -0.23505229E-02 -0.58276969E-10
    2    3    0.49926978E-03 -0.13321625E-09 -0.25278770E-02 -0.86093320E-10  0.22992708E-02 -0.18128129E-09
    3    3   -0.89169042E-03  0.42385034E-11  0.66238132E-10 -0.11523581E-09  0.17244624E-09 -0.18113911E-09
    4    3    0.92698906E-03  0.99329002E-10 -0.15999401E-02  0.48296036E-10  0.33448929E-03  0.25458103E-09
    1    4   -0.13533875E-02 -0.14893815E-09 -0.23505228E-02 -0.58276395E-10  0.25224595E-02 -0.35948075E-10
    2    4    0.49926979E-03 -0.13321611E-09  0.22992708E-02 -0.18128164E-09 -0.25278770E-02 -0.86093658E-10
    3    4    0.92698909E-03  0.99329263E-10  0.33448916E-03  0.25458106E-09 -0.15999399E-02  0.48296095E-10
    4    4   -0.89169043E-03  0.42385266E-11  0.19104988E-09 -0.18113904E-09  0.84841713E-10 -0.11523571E-09

   -2    0    0
    1    1   -0.21039192E-11 -0.92725470E-17 -0.22487035E-02  0.82659973E-17  0.54147058E-09  0.92725453E-17
    2    1   -0.14976356E-01 -0.97726856E-10  0.14330059E-02 -0.79238982E-09  0.14625245E-01 -0.28282976E-10
    3    1    0.11519137E-01  0.15757920E-08  0.14725195E-02  0.85851677E-09 -0.11519138E-01 -0.12651136E-08
    4    1   -0.14625245E-01 -0.22328454E-10  0.14330058E-02 -0.76013967E-09  0.14976356E-01  0.12987844E-10
    1    2    0.14625246E-01 -0.36706800E-09 -0.48429744E-03  0.80741402E-09 -0.14976357E-01  0.98488727E-09
    2    2    0.94330004E-03 -0.89665288E-17  0.31041841E-02 -0.70455588E-17  0.94330018E-03 -0.89665277E-17
    3    2   -0.14976356E-01  0.43121219E-09 -0.48429756E-03 -0.72225327E-09  0.14625246E-01 -0.97148026E-09
    4    2   -0.63207872E-09 -0.75257717E-09  0.10959453E-02 -0.83707449E-10  0.93267987E-10  0.93348714E-09
    1    3   -0.11519138E-01  0.26886069E-08  0.14725194E-02  0.12146238E-09  0.11519137E-01 -0.28432887E-08
    2    3    0.14625246E-01  0.84961134E-09  0.14330059E-02  0.95817233E-09 -0.14976356E-01 -0.11344270E-08
    3    3    0.62744657E-09  0.92725452E-17 -0.22487036E-02  0.82659970E-17 -0.10007346E-09 -0.92725477E-17
    4    3    0.14976356E-01  0.63780343E-09  0.14330059E-02  0.83076279E-09 -0.14625245E-01 -0.80111812E-09
    1    4    0.14976357E-01 -0.56581203E-09 -0.48429751E-03  0.61681476E-09 -0.14625246E-01  0.47902469E-09
    2    4   -0.27668754E-09 -0.85900653E-09  0.10959453E-02 -0.26530466E-09 -0.23686672E-09  0.70803986E-09
    3    4   -0.14625246E-01  0.74746655E-09 -0.48429756E-03 -0.66247826E-09  0.14976357E-01 -0.10006206E-09
    4    4   -0.94330080E-03  0.89665257E-17  0.31041842E-02 -0.70455595E-17 -0.94330051E-03  0.89665257E-17

   -2    0    1
    1    1   -0.13126941E-03 -0.14879191E-09 -0.92576471E-03  0.92713814E-10 -0.44877028E-03 -0.15670154E-10
    2    1    0.85088440E-03 -0.22950520E-09  0.43152866E-02 -0.14125300E-09 -0.56779825E-03  0.40994260E-09
    3    1   -0.14983160E-02 -0.26683911E-09 -0.22778617E-02  0.68662293E-10  0.27497326E-02 -0.18488966E-09
    4    1    0.28475724E-02  0.23153463E-09  0.25472587E-02 -0.82164228E-11 -0.63152450E-02  0.54585859E-10
    1    2    0.68845857E-03 -0.26398230E-09  0.26763168E-03 -0.39182340E-09 -0.23084206E-02 -0.15467626E-10
    2    2    0.17733018E-02 -0.21852114E-09  0.17733018E-02 -0.55803250E-10  0.28219597E-02 -0.23659224E-09
    3    2   -0.21505995E-02  0.98783835E-10 -0.21505996E-02  0.25260418E-09  0.24556019E-02 -0.91775637E-10
    4    2    0.26763138E-03 -0.65363505E-10  0.68845855E-03  0.67168939E-10 -0.23084209E-02  0.26973778E-09
    1    3    0.27531531E-02  0.67602642E-09 -0.97613225E-03  0.11067341E-09  0.11104719E-02 -0.22378990E-09
    2    3   -0.43886470E-02  0.46172499E-09 -0.43886469E-02 -0.22074690E-09  0.17205579E-02 -0.12850824E-09
    3    3   -0.23143173E-03 -0.53811697E-11 -0.23143195E-03 -0.13745211E-09  0.58121600E-03  0.24614559E-09
    4    3   -0.97613239E-03  0.12624209E-09  0.27531529E-02  0.31407718E-09  0.11104720E-02 -0.48922327E-10
    1    4    0.25472586E-02 -0.80078806E-10  0.28475725E-02  0.10595191E-09 -0.63152449E-02 -0.23215706E-09
    2    4    0.43152866E-02 -0.92044507E-10  0.85088445E-03  0.25802012E-09 -0.56779828E-03 -0.18366026E-09
    3    4   -0.22778619E-02  0.39080111E-09 -0.14983165E-02  0.59332241E-09  0.27497321E-02 -0.39257668E-10
    4    4   -0.92576452E-03 -0.37381500E-09 -0.13126959E-03  0.25379069E-09 -0.44877030E-03  0.99098508E-10

   -2    0    2
[...]
    4    3   -0.15967954E-10  0.95378979E-10 -0.19296404E-04  0.10847588E-09  0.19296466E-04  0.62750138E-10
    1    4   -0.19296400E-04 -0.11224881E-09  0.19296448E-04  0.13471716E-09  0.83668521E-11  0.28691171E-09
    2    4   -0.19296447E-04 -0.15293448E-09  0.10952386E-10 -0.19383730E-09 -0.19296492E-04 -0.41763435E-11
    3    4   -0.15081486E-10  0.95378950E-10  0.19296434E-04  0.62750354E-10 -0.19296436E-04  0.10847574E-09
    4    4   -0.26694387E-10 -0.50487417E-19  0.14167730E-10 -0.44330051E-18 -0.26289125E-10  0.26778939E-18

    2   -1   -2
    1    1    0.63457407E-03 -0.80398246E-11 -0.11321312E-02  0.12687935E-09 -0.11321312E-02  0.12687938E-09
    2    1    0.42427915E-03 -0.12021582E-09 -0.77086415E-03  0.22071110E-09 -0.77086414E-03  0.22071072E-09
    3    1   -0.79244722E-03 -0.24543064E-11  0.28084690E-02  0.21620185E-09 -0.20186787E-02 -0.76313847E-10
    4    1   -0.79244720E-03 -0.24544389E-11 -0.20186787E-02 -0.76313628E-10  0.28084690E-02  0.21620186E-09
    1    2    0.12954772E-02 -0.79947718E-10  0.63902928E-03  0.22080488E-09  0.63902932E-03  0.22080499E-09
    2    2    0.63457417E-03  0.12026129E-09  0.11321309E-02  0.20500707E-09  0.11321309E-02  0.20500705E-09
    3    2    0.38169600E-03 -0.43866061E-10 -0.23837345E-02 -0.19743456E-10  0.24892480E-02  0.15744331E-09
    4    2    0.38169601E-03 -0.43866009E-10  0.24892480E-02  0.15744377E-09 -0.23837345E-02 -0.19743181E-10
    1    3   -0.13533875E-02 -0.14893795E-09  0.25224596E-02 -0.35948953E-10 -0.23505229E-02 -0.58276972E-10
    2    3    0.49926978E-03 -0.13321625E-09 -0.25278770E-02 -0.86093317E-10  0.22992708E-02 -0.18128128E-09
    3    3   -0.89169042E-03  0.42385043E-11  0.66238132E-10 -0.11523581E-09  0.17244624E-09 -0.18113911E-09
    4    3    0.92698906E-03  0.99329009E-10 -0.15999401E-02  0.48296034E-10  0.33448929E-03  0.25458103E-09
    1    4   -0.13533875E-02 -0.14893815E-09 -0.23505228E-02 -0.58276394E-10  0.25224595E-02 -0.35948064E-10
    2    4    0.49926979E-03 -0.13321611E-09  0.22992708E-02 -0.18128164E-09 -0.25278770E-02 -0.86093658E-10
    3    4    0.92698909E-03  0.99329267E-10  0.33448916E-03  0.25458106E-09 -0.15999399E-02  0.48296098E-10
    4    4   -0.89169043E-03  0.42385266E-11  0.19104988E-09 -0.18113904E-09  0.84841713E-10 -0.11523571E-09

    2   -1   -1
    1    1    0.17733018E-02  0.21344075E-10 -0.28219595E-02  0.82444200E-10 -0.17733017E-02 -0.77268877E-11
    2    1   -0.49296074E-04 -0.10535644E-09 -0.34790704E-02 -0.25687289E-10  0.78668141E-04 -0.10949608E-09
    3    1    0.72930805E-03  0.73426974E-11  0.69211741E-02  0.79180119E-10 -0.72930795E-03 -0.21586711E-10
    4    1   -0.78668162E-04  0.55607032E-10 -0.34790701E-02 -0.79723644E-10  0.49296053E-04  0.48056575E-10
    1    2   -0.33410281E-02 -0.97557746E-10 -0.47914740E-03 -0.13507199E-09  0.17862788E-03 -0.11901051E-09
    2    2   -0.13126970E-03  0.22068989E-10  0.44877031E-03  0.72747051E-10  0.92576470E-03  0.13059278E-09
    3    2   -0.31115553E-03 -0.42376497E-10 -0.83254870E-03  0.18611683E-09 -0.27695218E-02  0.22582132E-09
    4    2   -0.54757252E-02 -0.23705073E-10 -0.41858214E-02 -0.11640155E-09  0.29242758E-02 -0.15547373E-09
    1    3    0.21648011E-02 -0.28962220E-10  0.54556814E-02  0.18411328E-09 -0.21648010E-02 -0.57345254E-10
    2    3   -0.33577132E-03 -0.11410220E-09  0.43918321E-02  0.18561287E-09 -0.40895992E-02  0.13799878E-09
    3    3   -0.23143192E-03  0.79952048E-10 -0.58121637E-03 -0.40992922E-10  0.23143193E-03 -0.42979272E-10
    4    3    0.40895988E-02 -0.10085381E-10  0.43918323E-02 -0.84440808E-10  0.33577154E-03 -0.62044921E-10
    1    4   -0.17862781E-03  0.30634950E-10 -0.47914742E-03 -0.92378342E-11  0.33410281E-02  0.71425036E-10
    2    4   -0.29242755E-02 -0.64735411E-11 -0.41858215E-02  0.57616258E-10  0.54757252E-02 -0.51710791E-10
    3    4    0.27695215E-02  0.62064043E-10 -0.83254866E-03 -0.11754400E-09  0.31115574E-03  0.28237779E-10
    4    4   -0.92576466E-03 -0.57007040E-10  0.44877029E-03  0.10502692E-09  0.13126963E-03  0.71839121E-11

    2   -1    0
    1    1    0.44877061E-03 -0.56819942E-10 -0.92576478E-03 -0.29894932E-09  0.13126939E-03 -0.32401010E-09
    2    1   -0.41858212E-02  0.14043597E-09 -0.29242752E-02  0.21800307E-09  0.54757250E-02 -0.27661716E-09
    3    1   -0.83254923E-03  0.39177081E-09  0.27695213E-02 -0.87366409E-10  0.31115621E-03  0.61455801E-10
    4    1   -0.47914730E-03 -0.29746076E-09 -0.17862808E-03 -0.45356070E-09  0.33410278E-02 -0.89019453E-10
    1    2   -0.41858215E-02  0.15729238E-09 -0.54757251E-02  0.48513856E-09  0.29242757E-02  0.14399969E-09
    2    2    0.44877015E-03  0.25668666E-10 -0.13126982E-03 -0.49319514E-10  0.92576454E-03 -0.93993708E-10
    3    2   -0.83254889E-03  0.16669946E-10 -0.31115542E-03 -0.16751385E-09 -0.27695218E-02 -0.24364354E-09
    4    2   -0.47914757E-03  0.71526129E-10 -0.33410279E-02  0.29941063E-09  0.17862791E-03  0.24719537E-09
    1    3    0.43918317E-02 -0.20791084E-09  0.40895991E-02  0.92946032E-10  0.33577152E-03  0.55581794E-10
    2    3    0.43918323E-02 -0.30530049E-10 -0.33577072E-03  0.82121929E-09 -0.40895990E-02 -0.16386803E-09
    3    3   -0.58121602E-03  0.40407711E-10 -0.23143169E-03  0.16342301E-09  0.23143188E-03  0.56209762E-11
    4    3    0.54556815E-02 -0.37078755E-09  0.21648009E-02 -0.10416124E-09 -0.21648011E-02  0.16956178E-11
    1    4   -0.34790702E-02  0.13596408E-09 -0.78668552E-04 -0.66396443E-09  0.49295822E-04 -0.13504971E-10
    2    4   -0.34790701E-02  0.54746547E-09 -0.49295851E-04  0.30871183E-09  0.78667844E-04 -0.23805666E-09
    3    4    0.69211740E-02 -0.54777807E-09  0.72930780E-03 -0.32870052E-09 -0.72930782E-03  0.10010137E-10
    4    4   -0.28219597E-02  0.94613873E-10  0.17733017E-02  0.70543554E-10 -0.17733020E-02 -0.21964409E-09

    2   -1    1
    1    1    0.75319182E-10  0.71302187E-11 -0.89169049E-03 -0.30545631E-12  0.93455499E-11  0.25906560E-10
    2    1    0.22992707E-02  0.16078471E-09  0.49926985E-03  0.43459640E-10 -0.25278774E-02 -0.76797622E-10
    3    1    0.33448953E-03 -0.10073849E-09  0.92698906E-03 -0.35185803E-09 -0.15999402E-02 -0.58293287E-10
    4    1   -0.23505233E-02  0.45316463E-12 -0.13533875E-02 -0.15679287E-10  0.25224595E-02  0.54250960E-10
    1    2    0.24892480E-02  0.72264357E-11  0.38169608E-03 -0.11989456E-09 -0.23837347E-02  0.17913966E-09
    2    2    0.11321310E-02 -0.45830878E-10  0.63457403E-03 -0.38276787E-10  0.11321310E-02  0.85264009E-10
    3    2   -0.23837345E-02 -0.50782799E-11  0.38169595E-03  0.23776281E-09  0.24892483E-02 -0.14820096E-09
    4    2    0.63902937E-03 -0.10643852E-09  0.12954770E-02  0.14710314E-09  0.63902941E-03  0.10611331E-09
    1    3   -0.15999399E-02 -0.26031426E-09  0.92698882E-03 -0.14916208E-09  0.33448941E-03 -0.22798439E-09
    2    3   -0.25278771E-02 -0.28597054E-09  0.49926981E-03 -0.10815616E-10  0.22992708E-02  0.56091308E-10
    3    3   -0.74044500E-10 -0.20581048E-11 -0.89169045E-03  0.18332609E-10  0.62588651E-10 -0.18335904E-10
    4    3    0.25224596E-02  0.39045118E-09 -0.13533874E-02 -0.17721588E-11 -0.23505232E-02 -0.14769690E-09
    1    4   -0.20186790E-02  0.32593293E-09 -0.79244718E-03  0.43423661E-10  0.28084692E-02  0.28541411E-10
    2    4   -0.77086412E-03  0.11891433E-09  0.42427917E-03  0.10728097E-09 -0.77086404E-03  0.28216860E-10
    3    4    0.28084690E-02 -0.46376712E-10 -0.79244727E-03  0.19234509E-09 -0.20186789E-02  0.35802063E-09
    4    4   -0.11321310E-02 -0.17186986E-10  0.63457412E-03  0.44723999E-10 -0.11321310E-02 -0.22793229E-10

    2    0   -2
    1    1    0.31041838E-02 -0.30023170E-27 -0.94330067E-03 -0.19610837E-18 -0.94330067E-03  0.19610837E-18
    2    1    0.10959451E-02  0.71986695E-10 -0.33473813E-09 -0.78343225E-10 -0.31730925E-09 -0.78343435E-10
    3    1   -0.48429745E-03 -0.19070969E-10 -0.14625246E-01 -0.67426695E-10  0.14976356E-01  0.14487507E-09
    4    1   -0.48429745E-03 -0.19070979E-10  0.14976356E-01  0.14487523E-09 -0.14625246E-01 -0.67426751E-10
    1    2    0.10959448E-02 -0.12956693E-09 -0.20320578E-09  0.39915254E-10 -0.22063466E-09  0.39915103E-10
    2    2    0.31041837E-02  0.19786135E-26  0.94329994E-03  0.38924487E-20  0.94329994E-03 -0.38924464E-20
    3    2   -0.48429743E-03 -0.73386640E-11 -0.14976356E-01  0.25340998E-09  0.14625246E-01 -0.41578758E-09
    4    2   -0.48429743E-03 -0.73388339E-11  0.14625246E-01 -0.41578760E-09 -0.14976356E-01  0.25340989E-09
    1    3    0.14330059E-02  0.23035028E-10  0.14976356E-01 -0.11634306E-09 -0.14625245E-01 -0.20469717E-10
    2    3    0.14330061E-02 -0.36983844E-10  0.14625246E-01  0.33244584E-09 -0.14976356E-01 -0.34410211E-09
    3    3   -0.22487037E-02  0.14279184E-18  0.47211229E-09 -0.53316639E-19  0.14795974E-09 -0.10282215E-18
    4    3    0.14725194E-02  0.61033337E-10 -0.11519138E-01  0.13357384E-10  0.11519137E-01  0.69543033E-10
    1    4    0.14330060E-02  0.23035103E-10 -0.14625245E-01 -0.20469702E-10  0.14976356E-01 -0.11634309E-09
    2    4    0.14330060E-02 -0.36983757E-10 -0.14976356E-01 -0.34410196E-09  0.14625246E-01  0.33244590E-09
    3    4    0.14725194E-02  0.61033391E-10  0.11519137E-01  0.69543118E-10 -0.11519138E-01  0.13356970E-10
    4    4   -0.22487037E-02 -0.14279185E-18  0.98439268E-10  0.10282215E-18  0.42259184E-09  0.53316635E-19

    2    0   -1
    1    1   -0.13126941E-03  0.14879191E-09 -0.92576471E-03 -0.92713814E-10 -0.44877028E-03  0.15670154E-10
    2    1   -0.33410278E-02 -0.48654363E-10 -0.17862805E-03 -0.23403422E-09  0.47914763E-03  0.52175627E-09
    3    1   -0.31115596E-03  0.13525103E-09  0.27695211E-02 -0.47221396E-09  0.83254861E-03 -0.29961525E-09
    4    1   -0.54757249E-02  0.31672362E-10 -0.29242751E-02  0.49936285E-09  0.41858216E-02  0.39524589E-10
    1    2   -0.49295730E-04 -0.12527589E-10 -0.78668445E-04 -0.70061843E-09  0.34790704E-02  0.18461452E-09
    2    2    0.17733018E-02  0.21852114E-09  0.17733018E-02  0.55803250E-10  0.28219597E-02  0.23659224E-09
    3    2    0.72930779E-03  0.71749873E-10  0.72930761E-03 -0.23269685E-09 -0.69211741E-02  0.39204113E-09
    4    2   -0.78667952E-04  0.14751408E-09 -0.49295680E-04  0.33997891E-09  0.34790701E-02 -0.17285092E-09
    1    3   -0.33577115E-03 -0.45483627E-10  0.40895990E-02 -0.12092898E-09 -0.43918324E-02 -0.11781541E-10
    2    3    0.21648007E-02 -0.30346288E-10  0.21648009E-02 -0.46504791E-10 -0.54556815E-02 -0.19842489E-09
    3    3   -0.23143173E-03  0.53811697E-11 -0.23143195E-03  0.13745211E-09  0.58121600E-03 -0.24614559E-09
    4    3    0.40895991E-02  0.77906516E-10 -0.33577038E-03  0.10074645E-08 -0.43918318E-02  0.80890914E-10
    1    4   -0.29242756E-02 -0.24587500E-10 -0.54757250E-02  0.31560960E-09  0.41858215E-02 -0.15135016E-09
    2    4   -0.17862795E-03 -0.11604455E-09 -0.33410279E-02  0.18786917E-09  0.47914738E-03  0.26934432E-10
    3    4    0.27695219E-02  0.14668132E-09 -0.31115564E-03  0.43331398E-10  0.83254884E-03  0.37914546E-09
    4    4   -0.92576452E-03  0.37381500E-09 -0.13126959E-03 -0.25379069E-09 -0.44877030E-03 -0.99098508E-10

    2    0    0
    1    1   -0.21039192E-11  0.92725470E-17 -0.22487035E-02 -0.82659973E-17  0.54147058E-09 -0.92725453E-17
    2    1   -0.14976356E-01 -0.97726787E-10  0.14330059E-02 -0.79238982E-09  0.14625245E-01 -0.28282969E-10
    3    1    0.11519137E-01  0.15757921E-08  0.14725195E-02  0.85851670E-09 -0.11519138E-01 -0.12651136E-08
    4    1   -0.14625245E-01 -0.22328457E-10  0.14330058E-02 -0.76013967E-09  0.14976356E-01  0.12987771E-10
    1    2    0.14625246E-01 -0.36706792E-09 -0.48429744E-03  0.80741402E-09 -0.14976357E-01  0.98488727E-09
    2    2    0.94330004E-03  0.89665288E-17  0.31041841E-02  0.70455588E-17  0.94330018E-03  0.89665277E-17
    3    2   -0.14976356E-01  0.43121218E-09 -0.48429756E-03 -0.72225328E-09  0.14625246E-01 -0.97148018E-09
    4    2   -0.63207871E-09 -0.75257717E-09  0.10959453E-02 -0.83707385E-10  0.93267983E-10  0.93348714E-09
    1    3   -0.11519138E-01  0.26886069E-08  0.14725194E-02  0.12146231E-09  0.11519137E-01 -0.28432887E-08
    2    3    0.14625246E-01  0.84961135E-09  0.14330059E-02  0.95817233E-09 -0.14976356E-01 -0.11344270E-08
    3    3    0.62744657E-09 -0.92725452E-17 -0.22487036E-02 -0.82659970E-17 -0.10007346E-09  0.92725477E-17
    4    3    0.14976356E-01  0.63780336E-09  0.14330059E-02  0.83076279E-09 -0.14625245E-01 -0.80111812E-09
    1    4    0.14976357E-01 -0.56581203E-09 -0.48429751E-03  0.61681477E-09 -0.14625246E-01  0.47902461E-09
    2    4   -0.27668753E-09 -0.85900654E-09  0.10959453E-02 -0.26530460E-09 -0.23686672E-09  0.70803985E-09
    3    4   -0.14625246E-01  0.74746648E-09 -0.48429756E-03 -0.66247826E-09  0.14976357E-01 -0.10006206E-09
    4    4   -0.94330080E-03 -0.89665257E-17  0.31041842E-02  0.70455595E-17 -0.94330051E-03 -0.89665257E-17

    2    1   -2
    1    1    0.63457407E-03  0.80398233E-11 -0.11321312E-02 -0.12687935E-09 -0.11321312E-02 -0.12687938E-09
    2    1    0.12954771E-02 -0.20908644E-09 -0.63902951E-03 -0.58544183E-10 -0.63902955E-03 -0.58544106E-10
    3    1    0.38169605E-03 -0.43572643E-10 -0.24892481E-02  0.30332266E-10  0.23837344E-02 -0.61863527E-10
    4    1    0.38169604E-03 -0.43572825E-10  0.23837344E-02 -0.61862920E-10 -0.24892480E-02  0.30333257E-10
    1    2    0.42427929E-03 -0.42912981E-10  0.77086392E-03 -0.15737309E-09  0.77086391E-03 -0.15737344E-09
    2    2    0.63457417E-03 -0.12026129E-09  0.11321309E-02 -0.20500708E-09  0.11321309E-02 -0.20500705E-09
    3    2   -0.79244718E-03  0.26547393E-10  0.20186787E-02  0.16104940E-10 -0.28084690E-02 -0.14011704E-09
    4    2   -0.79244719E-03  0.26547591E-10 -0.28084690E-02 -0.14011775E-09  0.20186787E-02  0.16104332E-10
    1    3    0.49926976E-03  0.16905321E-10 -0.22992705E-02  0.35721596E-09  0.25278774E-02 -0.23480156E-10
    2    3   -0.13533876E-02 -0.56897782E-10  0.23505231E-02  0.12157204E-09 -0.25224593E-02  0.91165538E-10
    3    3   -0.89169042E-03 -0.42385034E-11  0.66238132E-10  0.11523581E-09  0.17244624E-09  0.18113911E-09
    4    3    0.92698889E-03  0.12075959E-09 -0.33448942E-03 -0.82810233E-10  0.15999398E-02 -0.34474676E-09
    1    4    0.49926975E-03  0.16905427E-10  0.25278774E-02 -0.23479827E-10 -0.22992705E-02  0.35721612E-09
    2    4   -0.13533875E-02 -0.56897678E-10 -0.25224593E-02  0.91166035E-10  0.23505231E-02  0.12157239E-09
    3    4    0.92698886E-03  0.12075925E-09  0.15999399E-02 -0.34474649E-09 -0.33448954E-03 -0.82809909E-10
    4    4   -0.89169043E-03 -0.42385266E-11  0.19104988E-09  0.18113904E-09  0.84841713E-10  0.11523571E-09

    2    1   -1
    1    1    0.75319182E-10 -0.71302209E-11 -0.89169049E-03  0.30546061E-12  0.93455519E-11 -0.25906561E-10
    2    1   -0.25224596E-02 -0.99207697E-11 -0.13533875E-02  0.34233527E-10  0.23505232E-02  0.26142080E-09
    3    1    0.15999401E-02 -0.27092360E-09  0.92698905E-03 -0.53122994E-09 -0.33448933E-03 -0.26656619E-09
    4    1    0.25278774E-02  0.11173263E-09  0.49926976E-03  0.19462463E-09 -0.22992707E-02  0.11365517E-09
    1    2   -0.28084691E-02  0.43245059E-10 -0.79244732E-03  0.10068517E-11  0.20186788E-02 -0.21015132E-09
    2    2    0.11321310E-02  0.45830877E-10  0.63457403E-03  0.38276783E-10  0.11321310E-02 -0.85264011E-10
    3    2    0.20186788E-02 -0.36267250E-09 -0.79244713E-03  0.12949056E-09 -0.28084691E-02  0.27941440E-09
    4    2    0.77086418E-03  0.14131294E-09  0.42427911E-03  0.54484015E-10  0.77086399E-03  0.31901077E-10
    1    3   -0.33448951E-03  0.45273126E-10  0.92698883E-03 -0.23314741E-09  0.15999401E-02 -0.64858049E-10
    2    3    0.23505230E-02  0.25093721E-10 -0.13533874E-02  0.96075374E-10 -0.25224595E-02 -0.27540563E-09
    3    3   -0.74044499E-10  0.20581068E-11 -0.89169045E-03 -0.18332604E-10  0.62588653E-10  0.18335900E-10
    4    3   -0.22992707E-02  0.14817302E-10  0.49926991E-03  0.13381047E-09  0.25278773E-02  0.22758902E-09
    1    4    0.23837346E-02 -0.80763206E-10  0.38169611E-03 -0.15958588E-09 -0.24892480E-02  0.11027182E-09
    2    4   -0.63902936E-03  0.65270482E-11  0.12954771E-02  0.76810756E-10 -0.63902943E-03  0.30523742E-09
    3    4   -0.24892484E-02  0.16213738E-09  0.38169602E-03  0.10371668E-09  0.23837346E-02 -0.13442607E-09
    4    4   -0.11321310E-02  0.17186988E-10  0.63457412E-03 -0.44724003E-10 -0.11321310E-02  0.22793228E-10

    2    2   -2
    1    1    0.13927667E-09 -0.26778932E-18 -0.81352509E-10  0.26778942E-18 -0.81352442E-10  0.12502376E-18
    2    1    0.11902934E-09 -0.24654633E-09 -0.19296337E-04  0.99665594E-10 -0.19296369E-04  0.99665526E-10
    3    1    0.19296424E-04 -0.22864863E-10 -0.38942661E-10  0.14677865E-09 -0.19296378E-04  0.59477852E-10
    4    1    0.19296416E-04 -0.22864920E-10 -0.19296419E-04  0.59478064E-10 -0.38808751E-10  0.14677870E-09
    1    2   -0.40232267E-10 -0.32208214E-09  0.19296393E-04 -0.66178263E-10  0.19296425E-04 -0.66178292E-10
    2    2   -0.71521680E-11 -0.26778934E-18  0.63703739E-10 -0.44330048E-18  0.63703728E-10  0.50487519E-19
    3    2    0.19296484E-04 -0.11991787E-09  0.19296540E-04  0.14695262E-10  0.68678833E-10 -0.12924011E-09
    4    2    0.19296492E-04 -0.11991795E-09  0.68452167E-10 -0.12924016E-09  0.19296499E-04  0.14695254E-10
    1    3   -0.19296408E-04 -0.11224881E-09  0.85007925E-11  0.28691168E-09  0.19296407E-04  0.13471684E-09
    2    3   -0.19296439E-04 -0.15293438E-09 -0.19296533E-04 -0.41764568E-11  0.10725566E-10 -0.19383733E-09
    3    3   -0.26694394E-10  0.44330053E-18 -0.26289218E-10  0.26778928E-18  0.14167691E-10  0.50487357E-19
    4    3   -0.15967944E-10  0.95378981E-10 -0.19296404E-04  0.10847588E-09  0.19296466E-04  0.62750137E-10
    1    4   -0.19296400E-04 -0.11224881E-09  0.19296448E-04  0.13471716E-09  0.83668521E-11  0.28691171E-09
    2    4   -0.19296447E-04 -0.15293448E-09  0.10952379E-10 -0.19383730E-09 -0.19296492E-04 -0.41763448E-11
    3    4   -0.15081476E-10  0.95378951E-10  0.19296434E-04  0.62750350E-10 -0.19296436E-04  0.10847575E-09
    4    4   -0.26694387E-10  0.50487397E-19  0.14167730E-10 -0.50487460E-19 -0.26289125E-10 -0.26778939E-18

    3   -1   -1
    1    1    0.10608690E-02 -0.18007412E-09 -0.10608691E-02  0.17748694E-09 -0.10608691E-02  0.17748707E-09
    2    1   -0.17281407E-02 -0.57141143E-10  0.18180709E-03 -0.94625334E-10  0.18180709E-03 -0.94625629E-10
    3    1   -0.18180732E-03  0.17286219E-09  0.17281406E-02  0.40540537E-09  0.18180716E-03 -0.89387336E-10
    4    1   -0.18180728E-03  0.17286196E-09  0.18180716E-03 -0.89387348E-10  0.17281406E-02  0.40540562E-09
    1    2   -0.17281404E-02 -0.51955053E-10 -0.18180724E-03 -0.61526821E-10 -0.18180724E-03 -0.61526632E-10
    2    2    0.10608690E-02  0.23570359E-09  0.10608690E-02  0.14348646E-09  0.10608690E-02  0.14348621E-09
    3    2   -0.18180706E-03  0.43994838E-10 -0.18180717E-03  0.91281898E-10 -0.17281404E-02  0.14360166E-10
    4    2   -0.18180710E-03  0.43995092E-10 -0.17281404E-02  0.14360015E-10 -0.18180716E-03  0.91281840E-10
    1    3    0.18180722E-03  0.82065260E-10  0.17281404E-02  0.35698542E-09 -0.18180724E-03 -0.11000856E-09
    2    3    0.18180726E-03 -0.75981666E-10  0.18180726E-03  0.82723395E-10 -0.17281405E-02  0.57594042E-10
    3    3   -0.10608691E-02 -0.16834387E-09 -0.10608692E-02 -0.23068122E-09  0.10608690E-02  0.13587647E-09
    4    3    0.17281405E-02 -0.21215381E-09  0.18180718E-03  0.55860682E-10 -0.18180741E-03  0.74900748E-10
    1    4    0.18180718E-03  0.82065092E-10 -0.18180724E-03 -0.11000854E-09  0.17281404E-02  0.35698540E-09
    2    4    0.18180730E-03 -0.75981473E-10 -0.17281405E-02  0.57594261E-10  0.18180726E-03  0.82723257E-10
    3    4    0.17281405E-02 -0.21215398E-09 -0.18180740E-03  0.74900782E-10  0.18180718E-03  0.55860739E-10
    4    4   -0.10608691E-02 -0.16834388E-09  0.10608691E-02  0.13587677E-09 -0.10608691E-02 -0.23068126E-09
