
             +---------------------------------------------------+
             |                                                   |
             |                   WANNIER90                       |
             |                                                   |
             +---------------------------------------------------+
             |                                                   |
             |        Welcome to the Maximally-Localized         |
             |        Generalized Wannier Functions code         |
             |            http://www.wannier.org                 |
             |                                                   |
             |                                                   |
             |  Wannier90 Developer Group:                       |
             |    Giovanni Pizzi    (EPFL)                       |
             |    Valerio Vitale    (Cambridge)                  |
             |    David Vanderbilt  (Rutgers University)         |
             |    Nicola Marzari    (EPFL)                       |
             |    Ivo Souza         (Universidad del Pais Vasco) |
             |    Arash A. Mostofi  (Imperial College London)    |
             |    Jonathan R. Yates (University of Oxford)       |
             |                                                   |
             |  For the full list of Wannier90 3.x authors,      |
             |  please check the code documentation and the      |
             |  README on the GitHub page of the code            |
             |                                                   |
             |                                                   |
             |  Please cite                                      |
             |                                                   |
             |  [ref] "Wannier90 as a community code:            |
             |        new features and applications",            |
             |        G. Pizzi et al., J. Phys. Cond. Matt. 32,  |
             |        165902 (2020).                             |
             |        http://doi.org/10.1088/1361-648X/ab51ff    |
             |                                                   |
             |  in any publications arising from the use of      |
             |  this code. For the method please cite            |
             |                                                   |
             |  [ref] "Maximally Localized Generalised Wannier   |
             |         Functions for Composite Energy Bands"     |
             |         N. Marzari and D. Vanderbilt              |
             |         Phys. Rev. B 56 12847 (1997)              |
             |                                                   |
             |  [ref] "Maximally Localized Wannier Functions     |
             |         for Entangled Energy Bands"               |
             |         I. Souza, N. Marzari and D. Vanderbilt    |
             |         Phys. Rev. B 65 035109 (2001)             |
             |                                                   |
             |                                                   |
             | Copyright (c) 1996-2020                           |
             |        The Wannier90 Developer Group and          |
             |        individual contributors                    |
             |                                                   |
             |      Release: 3.1.0        5th March    2020      |
             |                                                   |
             | This program is free software; you can            |
             | redistribute it and/or modify it under the terms  |
             | of the GNU General Public License as published by |
             | the Free Software Foundation; either version 2 of |
             | the License, or (at your option) any later version|
             |                                                   |
             | This program is distributed in the hope that it   |
             | will be useful, but WITHOUT ANY WARRANTY; without |
             | even the implied warranty of MERCHANTABILITY or   |
             | FITNESS FOR A PARTICULAR PURPOSE. See the GNU     |
             | General Public License for more details.          |
             |                                                   |
             | You should have received a copy of the GNU General|
             | Public License along with this program; if not,   |
             | write to the Free Software Foundation, Inc.,      |
             | 675 Mass Ave, Cambridge, MA 02139, USA.           |
             |                                                   |
             +---------------------------------------------------+
             |    Execution started on 22May2024 at 22:01:29     |
             +---------------------------------------------------+
 
 ******************************************************************************
 * -> Using CODATA 2006 constant values                                       *
 *    (http://physics.nist.gov/cuu/Constants/index.html)                      *
 * -> Using Bohr value from CODATA                                            *
 ******************************************************************************
 

 Running in serial (with parallel executable)

                                    ------
                                    SYSTEM
                                    ------

                            Lattice Vectors (Bohr)
                    a_1    -5.150000   0.000000   5.150000
                    a_2     0.000000   5.150000   5.150000
                    a_3    -5.150000   5.150000   0.000000

                   Unit Cell Volume:     273.18175  (Bohr^3)

                      Reciprocal-Space Vectors (Bohr^-1)
                    b_1    -0.610018  -0.610018   0.610018
                    b_2     0.610018   0.610018   0.610018
                    b_3    -0.610018   0.610018  -0.610018
  
 *----------------------------------------------------------------------------*
 |   Site       Fractional Coordinate          Cartesian Coordinate (Bohr)    |
 +----------------------------------------------------------------------------+
 | Si   1  -0.25000   0.75000  -0.25000   |    2.57500   2.57500   2.57500    |
 | Si   2   0.00000   0.00000   0.00000   |    0.00000   0.00000   0.00000    |
 *----------------------------------------------------------------------------*
                                -----------
                                PROJECTIONS
                                -----------
  
 +----------------------------------------------------------------------------+
 |     Frac. Coord.   l mr  r        z-axis               x-axis          Z/a |
 +----------------------------------------------------------------------------+
 | -0.12 -0.12  0.38  0  1  1  0.000  0.000  1.000  1.000  0.000  0.000   1.0 |
 |  0.38 -0.12 -0.12  0  1  1  0.000  0.000  1.000  1.000  0.000  0.000   1.0 |
 | -0.12  0.38 -0.12  0  1  1  0.000  0.000  1.000  1.000  0.000  0.000   1.0 |
 | -0.12 -0.12 -0.12  0  1  1  0.000  0.000  1.000  1.000  0.000  0.000   1.0 |
 +----------------------------------------------------------------------------+
  
                                ------------
                                K-POINT GRID
                                ------------
  
             Grid size =  4 x  4 x  4      Total points =   64
  
 *----------------------------------------------------------------------------*
 | k-point      Fractional Coordinate        Cartesian Coordinate (Bohr^-1)   |
 +----------------------------------------------------------------------------+
 |     1    0.00000   0.00000   0.00000   |    0.00000   0.00000   0.00000    |
 |     2    0.00000   0.25000   0.00000   |    0.15250   0.15250   0.15250    |
 |     3    0.00000   0.50000   0.00000   |    0.30501   0.30501   0.30501    |
 |     4    0.00000   0.75000   0.00000   |    0.45751   0.45751   0.45751    |
 |     5    0.25000   0.00000   0.00000   |   -0.15250  -0.15250   0.15250    |
 |     6    0.25000   0.25000   0.00000   |    0.00000   0.00000   0.30501    |
 |     7    0.25000   0.50000   0.00000   |    0.15250   0.15250   0.45751    |
 |     8    0.25000   0.75000   0.00000   |    0.30501   0.30501   0.61002    |
 |     9    0.50000   0.00000   0.00000   |   -0.30501  -0.30501   0.30501    |
 |    10    0.50000   0.25000   0.00000   |   -0.15250  -0.15250   0.45751    |
 |    11    0.50000   0.50000   0.00000   |    0.00000   0.00000   0.61002    |
 |    12    0.50000   0.75000   0.00000   |    0.15250   0.15250   0.76252    |
 |    13    0.75000   0.00000   0.00000   |   -0.45751  -0.45751   0.45751    |
 |    14    0.75000   0.25000   0.00000   |   -0.30501  -0.30501   0.61002    |
 |    15    0.75000   0.50000   0.00000   |   -0.15250  -0.15250   0.76252    |
 |    16    0.75000   0.75000   0.00000   |    0.00000   0.00000   0.91503    |
 |    17    0.00000   0.00000   0.25000   |   -0.15250   0.15250  -0.15250    |
 |    18    0.00000   0.25000   0.25000   |    0.00000   0.30501   0.00000    |
 |    19    0.00000   0.50000   0.25000   |    0.15250   0.45751   0.15250    |
 |    20    0.00000   0.75000   0.25000   |    0.30501   0.61002   0.30501    |
 |    21    0.25000   0.00000   0.25000   |   -0.30501   0.00000   0.00000    |
 |    22    0.25000   0.25000   0.25000   |   -0.15250   0.15250   0.15250    |
 |    23    0.25000   0.50000   0.25000   |    0.00000   0.30501   0.30501    |
 |    24    0.25000   0.75000   0.25000   |    0.15250   0.45751   0.45751    |
 |    25    0.50000   0.00000   0.25000   |   -0.45751  -0.15250   0.15250    |
 |    26    0.50000   0.25000   0.25000   |   -0.30501   0.00000   0.30501    |
 |    27    0.50000   0.50000   0.25000   |   -0.15250   0.15250   0.45751    |
 |    28    0.50000   0.75000   0.25000   |    0.00000   0.30501   0.61002    |
 |    29    0.75000   0.00000   0.25000   |   -0.61002  -0.30501   0.30501    |
 |    30    0.75000   0.25000   0.25000   |   -0.45751  -0.15250   0.45751    |
 |    31    0.75000   0.50000   0.25000   |   -0.30501   0.00000   0.61002    |
 |    32    0.75000   0.75000   0.25000   |   -0.15250   0.15250   0.76252    |
 |    33    0.00000   0.00000   0.50000   |   -0.30501   0.30501  -0.30501    |
 |    34    0.00000   0.25000   0.50000   |   -0.15250   0.45751  -0.15250    |
 |    35    0.00000   0.50000   0.50000   |    0.00000   0.61002   0.00000    |
 |    36    0.00000   0.75000   0.50000   |    0.15250   0.76252   0.15250    |
 |    37    0.25000   0.00000   0.50000   |   -0.45751   0.15250  -0.15250    |
 |    38    0.25000   0.25000   0.50000   |   -0.30501   0.30501   0.00000    |
 |    39    0.25000   0.50000   0.50000   |   -0.15250   0.45751   0.15250    |
 |    40    0.25000   0.75000   0.50000   |    0.00000   0.61002   0.30501    |
 |    41    0.50000   0.00000   0.50000   |   -0.61002   0.00000   0.00000    |
 |    42    0.50000   0.25000   0.50000   |   -0.45751   0.15250   0.15250    |
 |    43    0.50000   0.50000   0.50000   |   -0.30501   0.30501   0.30501    |
 |    44    0.50000   0.75000   0.50000   |   -0.15250   0.45751   0.45751    |
 |    45    0.75000   0.00000   0.50000   |   -0.76252  -0.15250   0.15250    |
 |    46    0.75000   0.25000   0.50000   |   -0.61002   0.00000   0.30501    |
 |    47    0.75000   0.50000   0.50000   |   -0.45751   0.15250   0.45751    |
 |    48    0.75000   0.75000   0.50000   |   -0.30501   0.30501   0.61002    |
 |    49    0.00000   0.00000   0.75000   |   -0.45751   0.45751  -0.45751    |
 |    50    0.00000   0.25000   0.75000   |   -0.30501   0.61002  -0.30501    |
 |    51    0.00000   0.50000   0.75000   |   -0.15250   0.76252  -0.15250    |
 |    52    0.00000   0.75000   0.75000   |    0.00000   0.91503   0.00000    |
 |    53    0.25000   0.00000   0.75000   |   -0.61002   0.30501  -0.30501    |
 |    54    0.25000   0.25000   0.75000   |   -0.45751   0.45751  -0.15250    |
 |    55    0.25000   0.50000   0.75000   |   -0.30501   0.61002   0.00000    |
 |    56    0.25000   0.75000   0.75000   |   -0.15250   0.76252   0.15250    |
 |    57    0.50000   0.00000   0.75000   |   -0.76252   0.15250  -0.15250    |
 |    58    0.50000   0.25000   0.75000   |   -0.61002   0.30501   0.00000    |
 |    59    0.50000   0.50000   0.75000   |   -0.45751   0.45751   0.15250    |
 |    60    0.50000   0.75000   0.75000   |   -0.30501   0.61002   0.30501    |
 |    61    0.75000   0.00000   0.75000   |   -0.91503   0.00000   0.00000    |
 |    62    0.75000   0.25000   0.75000   |   -0.76252   0.15250   0.15250    |
 |    63    0.75000   0.50000   0.75000   |   -0.61002   0.30501   0.30501    |
 |    64    0.75000   0.75000   0.75000   |   -0.45751   0.45751   0.45751    |
 *----------------------------------------------------------------------------*
  
  
 *---------------------------------- MAIN ------------------------------------*
 |  Number of Wannier Functions               :                 4             |
 |  Number of Objective Wannier Functions     :                 4             |
 |  Number of input Bloch states              :                 4             |
 |  Output verbosity (1=low, 5=high)          :                 2             |
 |  Timing Level (1=low, 5=high)              :                 1             |
 |  Optimisation (0=memory, 3=speed)          :                 3             |
 |  Length Unit                               :              Bohr             |
 |  Post-processing setup (write *.nnkp)      :                 F             |
 |  Using Gamma-only branch of algorithms     :                 F             |
 |  Wavefunction (UNK) file-type              :       unformatted             |
 |  Wavefunction spin channel                 :                up             |
 *----------------------------------------------------------------------------*
 *------------------------------- WANNIERISE ---------------------------------*
 |  Total number of iterations                :               100             |
 |  Number of CG steps before reset           :                 5             |
 |  Trial step length for line search         :             2.000             |
 |  Convergence tolerence                     :         0.100E-09             |
 |  Convergence window                        :                -1             |
 |  Iterations between writing output         :                10             |
 |  Iterations between backing up to disk     :                10             |
 |  Write r^2_nm to file                      :                 F             |
 |  Write xyz WF centres to file              :                 T             |
 |  Write on-site energies <0n|H|0n> to file  :                 F             |
 |  Use guiding centre to control phases      :                 F             |
 |  Use phases for initial projections        :                 F             |
 *----------------------------------------------------------------------------*
 *-------------------------------- PLOTTING ----------------------------------*
 |  Plotting Wannier functions                :                 T             |
 |   Size of supercell for plotting           :     2x    2x    2             |
 |   Plotting mode (molecule or crystal)      :           crystal             |
 |   Plotting format                          :          xcrysden             |
 *----------------------------------------------------------------------------*
 |  Plotting interpolated bandstructure       :                 T             |
 |   Number of K-path sections                :                 4             |
 |   Divisions along first K-path section     :               100             |
 |   Output format                            :           gnuplot             |
 |   Output mode                              :               s-k             |
 *----------------------------------------------------------------------------*
 |   K-space path sections:                                                   |
 |    From: L       0.500  0.500  0.500     To: G       0.000  0.000  0.000   |
 |    From: G       0.000  0.000  0.000     To: X       0.500  0.000  0.500   |
 |    From: X       0.500 -0.500  0.000     To: K       0.375 -0.375  0.000   |
 |    From: K       0.375 -0.375  0.000     To: G       0.000  0.000  0.000   |
 *----------------------------------------------------------------------------*
 |  Plotting Hamiltonian in WF basis          :                 T             |
 *----------------------------------------------------------------------------*
 Time to read parameters        0.004 (sec)

 *---------------------------------- K-MESH ----------------------------------*
 +----------------------------------------------------------------------------+
 |                    Distance to Nearest-Neighbour Shells                    |
 |                    ------------------------------------                    |
 |          Shell             Distance (Bohr^-1)         Multiplicity         |
 |          -----             ------------------         ------------         |
 |             1                   0.264146                      8            |
 |             2                   0.305009                      6            |
 |             3                   0.431348                     12            |
 |             4                   0.505800                     24            |
 |             5                   0.528291                      8            |
 |             6                   0.610018                      6            |
 |             7                   0.664752                     24            |
 |             8                   0.682021                     24            |
 |             9                   0.747116                     24            |
 |            10                   0.792437                     32            |
 |            11                   0.862696                     12            |
 |            12                   0.902229                     48            |
 |            13                   0.915027                     30            |
 |            14                   0.964523                     24            |
 |            15                   1.000039                     24            |
 |            16                   1.011600                     24            |
 |            17                   1.056582                      8            |
 |            18                   1.089100                     48            |
 |            19                   1.099726                     24            |
 |            20                   1.141239                     48            |
 |            21                   1.171409                     72            |
 |            22                   1.220036                      6            |
 |            23                   1.248303                     24            |
 |            24                   1.257584                     48            |
 |            25                   1.294044                     36            |
 |            26                   1.320728                     56            |
 |            27                   1.329503                     24            |
 |            28                   1.364042                     24            |
 |            29                   1.389382                     72            |
 |            30                   1.397727                     48            |
 |            31                   1.430619                     24            |
 |            32                   1.454800                     48            |
 |            33                   1.494233                     24            |
 |            34                   1.517401                     72            |
 |            35                   1.525045                     30            |
 |            36                   1.555247                     72            |
 +----------------------------------------------------------------------------+
 | The b-vectors are chosen automatically                                     |
 | Shell:  1 w_b    5.3745822     (Bohr^2)                                    |
 | The following shells are used:   1                                         |
 +----------------------------------------------------------------------------+
 |                        Shell   # Nearest-Neighbours                        |
 |                        -----   --------------------                        |
 |                          1               8                                 |
 +----------------------------------------------------------------------------+
 | Completeness relation is fully satisfied [Eq. (B1), PRB 56, 12847 (1997)]  |
 +----------------------------------------------------------------------------+
 |                 b_k Vectors (Bohr^-1) and Weights (Bohr^2)                 |
 |                 ------------------------------------------                 |
 |            No.         b_k(x)      b_k(y)      b_k(z)        w_b           |
 |            ---        --------------------------------     --------        |
 |             1         0.152504    0.152504    0.152504     5.374582        |
 |             2        -0.152504   -0.152504    0.152504     5.374582        |
 |             3        -0.152504    0.152504   -0.152504     5.374582        |
 |             4        -0.152504    0.152504    0.152504     5.374582        |
 |             5         0.152504   -0.152504    0.152504     5.374582        |
 |             6        -0.152504   -0.152504   -0.152504     5.374582        |
 |             7         0.152504    0.152504   -0.152504     5.374582        |
 |             8         0.152504   -0.152504   -0.152504     5.374582        |
 +----------------------------------------------------------------------------+
 |                           b_k Directions (Bohr^-1)                         |
 |                           ------------------------                         |
 |            No.           x           y           z                         |
 |            ---        --------------------------------                     |
 |             1         0.152504    0.152504    0.152504                     |
 |             2        -0.152504   -0.152504    0.152504                     |
 |             3        -0.152504    0.152504   -0.152504                     |
 |             4        -0.152504    0.152504    0.152504                     |
 +----------------------------------------------------------------------------+
  
 Time to get kmesh              0.015 (sec)
 *============================================================================*
 |                              MEMORY ESTIMATE                               |
 |         Maximum RAM allocated during each phase of the calculation         |
 *============================================================================*
 |                            Wannierise:            0.42 Mb                  |
 |                                                                            |
 |   N.B. by setting optimisation=0 memory usage will be reduced to:          |
 |                            Wannierise:            0.29 Mb                  |
 |   However, this will result in more i/o and slow down the calculation      |
 |                          plot_wannier:            0.42 Mb                  |
 *----------------------------------------------------------------------------*
  
 Starting a new Wannier90 calculation ...


 Reading overlaps from silicon.mmn    : siesta2wannier90: Siesta for Wannier90

 Reading projections from silicon.amn : siesta2wannier90: Siesta for Wannier90

 Time to read overlaps          0.010 (sec)

 Writing checkpoint file silicon.chk... done


 *------------------------------- WANNIERISE ---------------------------------*
 +--------------------------------------------------------------------+<-- CONV
 | Iter  Delta Spread     RMS Gradient      Spread (Bohr^2)     Time  |<-- CONV
 +--------------------------------------------------------------------+<-- CONV

 ------------------------------------------------------------------------------
 Initial State
  WF centre and spread    1  ( -0.300905,  0.300905,  0.300905 )     9.84426325
  WF centre and spread    2  ( -0.300905, -0.300905, -0.300905 )     9.84426322
  WF centre and spread    3  (  0.300905,  0.300905, -0.300905 )     9.84426325
  WF centre and spread    4  (  0.300905, -0.300905,  0.300905 )     9.84426325
  Sum of centres and spreads ( -0.000000, -0.000000, -0.000000 )    39.37705298

      0     0.394E+02     0.0000000000       39.3770529761       0.00  <-- CONV
        O_D=      0.2718425 O_OD=     17.8164323 O_TOT=     39.3770530 <-- SPRD
 ------------------------------------------------------------------------------
 Cycle:      1
  WF centre and spread    1  ( -0.292119,  0.292119,  0.292119 )     9.65208310
  WF centre and spread    2  ( -0.292119, -0.292119, -0.292119 )     9.65208304
  WF centre and spread    3  (  0.292119,  0.292119, -0.292119 )     9.65208307
  WF centre and spread    4  (  0.292119, -0.292119,  0.292119 )     9.65208307
  Sum of centres and spreads ( -0.000000, -0.000000, -0.000000 )    38.60833229

      1    -0.769E+00     0.7308995778       38.6083322866       0.01  <-- CONV
        O_D=      0.2329829 O_OD=     17.0865713 O_TOT=     38.6083323 <-- SPRD
 Delta: O_D= -0.3885960E-01 O_OD= -0.7298611E+00 O_TOT= -0.7687207E+00 <-- DLTA
 ------------------------------------------------------------------------------
 Cycle:     10
  WF centre and spread    1  ( -0.286165,  0.286165,  0.286165 )     9.61259193
  WF centre and spread    2  ( -0.286165, -0.286165, -0.286165 )     9.61259186
  WF centre and spread    3  (  0.286165,  0.286165, -0.286165 )     9.61259189
  WF centre and spread    4  (  0.286165, -0.286165,  0.286165 )     9.61259189
  Sum of centres and spreads ( -0.000000, -0.000000, -0.000000 )    38.45036756

     10    -0.685E-09     0.0000324737       38.4503675611       0.07  <-- CONV
        O_D=      0.1477616 O_OD=     17.0138278 O_TOT=     38.4503676 <-- SPRD
 Delta: O_D=  0.2560581E-06 O_OD= -0.2567428E-06 O_TOT= -0.6846651E-09 <-- DLTA
 ------------------------------------------------------------------------------

 Writing checkpoint file silicon.chk... done

 Cycle:     20
  WF centre and spread    1  ( -0.286165,  0.286165,  0.286165 )     9.61259193
  WF centre and spread    2  ( -0.286165, -0.286165, -0.286165 )     9.61259186
  WF centre and spread    3  (  0.286165,  0.286165, -0.286165 )     9.61259189
  WF centre and spread    4  (  0.286165, -0.286165,  0.286165 )     9.61259189
  Sum of centres and spreads ( -0.000000, -0.000000, -0.000000 )    38.45036756

     20    -0.140E-12     0.0000011525       38.4503675609       0.13  <-- CONV
        O_D=      0.1477620 O_OD=     17.0138275 O_TOT=     38.4503676 <-- SPRD
 Delta: O_D=  0.1143046E-08 O_OD= -0.1143185E-08 O_TOT= -0.1395567E-12 <-- DLTA
 ------------------------------------------------------------------------------

 Writing checkpoint file silicon.chk... done

 Cycle:     30
  WF centre and spread    1  ( -0.286165,  0.286165,  0.286165 )     9.61259193
  WF centre and spread    2  ( -0.286165, -0.286165, -0.286165 )     9.61259186
  WF centre and spread    3  (  0.286165,  0.286165, -0.286165 )     9.61259189
  WF centre and spread    4  (  0.286165, -0.286165,  0.286165 )     9.61259189
  Sum of centres and spreads ( -0.000000, -0.000000, -0.000000 )    38.45036756

     30     0.101E-12     0.0000005851       38.4503675609       0.19  <-- CONV
        O_D=      0.1477620 O_OD=     17.0138274 O_TOT=     38.4503676 <-- SPRD
 Delta: O_D=  0.5523990E-09 O_OD= -0.5522956E-09 O_TOT=  0.1014958E-12 <-- DLTA
 ------------------------------------------------------------------------------

 Writing checkpoint file silicon.chk... done

 Cycle:     40
  WF centre and spread    1  ( -0.286165,  0.286165,  0.286165 )     9.61259193
  WF centre and spread    2  ( -0.286165, -0.286165, -0.286165 )     9.61259186
  WF centre and spread    3  (  0.286165,  0.286165, -0.286165 )     9.61259189
  WF centre and spread    4  (  0.286165, -0.286165,  0.286165 )     9.61259189
  Sum of centres and spreads ( -0.000000, -0.000000, -0.000000 )    38.45036756

     40    -0.571E-13     0.0000005130       38.4503675609       0.25  <-- CONV
        O_D=      0.1477620 O_OD=     17.0138274 O_TOT=     38.4503676 <-- SPRD
 Delta: O_D=  0.1047982E-08 O_OD= -0.1048039E-08 O_TOT= -0.5709137E-13 <-- DLTA
 ------------------------------------------------------------------------------

 Writing checkpoint file silicon.chk... done

 Cycle:     50
  WF centre and spread    1  ( -0.286165,  0.286165,  0.286165 )     9.61259193
  WF centre and spread    2  ( -0.286165, -0.286165, -0.286165 )     9.61259186
  WF centre and spread    3  (  0.286165,  0.286165, -0.286165 )     9.61259189
  WF centre and spread    4  (  0.286165, -0.286165,  0.286165 )     9.61259189
  Sum of centres and spreads ( -0.000000, -0.000000, -0.000000 )    38.45036756

     50     0.114E-12     0.0000004078       38.4503675609       0.30  <-- CONV
        O_D=      0.1477620 O_OD=     17.0138274 O_TOT=     38.4503676 <-- SPRD
 Delta: O_D=  0.2666484E-10 O_OD= -0.2654749E-10 O_TOT=  0.1141827E-12 <-- DLTA
 ------------------------------------------------------------------------------

 Writing checkpoint file silicon.chk... done

 Cycle:     60
  WF centre and spread    1  ( -0.286165,  0.286165,  0.286165 )     9.61259193
  WF centre and spread    2  ( -0.286165, -0.286165, -0.286165 )     9.61259186
  WF centre and spread    3  (  0.286165,  0.286165, -0.286165 )     9.61259189
  WF centre and spread    4  (  0.286165, -0.286165,  0.286165 )     9.61259189
  Sum of centres and spreads ( -0.000000, -0.000000, -0.000000 )    38.45036756

     60    -0.317E-13     0.0000003267       38.4503675609       0.35  <-- CONV
        O_D=      0.1477620 O_OD=     17.0138274 O_TOT=     38.4503676 <-- SPRD
 Delta: O_D=  0.9628205E-09 O_OD= -0.9628555E-09 O_TOT= -0.3171743E-13 <-- DLTA
 ------------------------------------------------------------------------------

 Writing checkpoint file silicon.chk... done

 Cycle:     70
  WF centre and spread    1  ( -0.286165,  0.286165,  0.286165 )     9.61259193
  WF centre and spread    2  ( -0.286165, -0.286165, -0.286165 )     9.61259186
  WF centre and spread    3  (  0.286165,  0.286165, -0.286165 )     9.61259189
  WF centre and spread    4  (  0.286165, -0.286165,  0.286165 )     9.61259189
  Sum of centres and spreads ( -0.000000, -0.000000, -0.000000 )    38.45036756

     70    -0.254E-13     0.0000002690       38.4503675609       0.40  <-- CONV
        O_D=      0.1477620 O_OD=     17.0138274 O_TOT=     38.4503676 <-- SPRD
 Delta: O_D=  0.5492175E-09 O_OD= -0.5492412E-09 O_TOT= -0.2537394E-13 <-- DLTA
 ------------------------------------------------------------------------------

 Writing checkpoint file silicon.chk... done

 Cycle:     80
  WF centre and spread    1  ( -0.286165,  0.286165,  0.286165 )     9.61259193
  WF centre and spread    2  ( -0.286165, -0.286165, -0.286165 )     9.61259185
  WF centre and spread    3  (  0.286165,  0.286165, -0.286165 )     9.61259189
  WF centre and spread    4  (  0.286165, -0.286165,  0.286165 )     9.61259189
  Sum of centres and spreads ( -0.000000, -0.000000, -0.000000 )    38.45036756

     80     0.507E-13     0.0000002102       38.4503675609       0.45  <-- CONV
        O_D=      0.1477620 O_OD=     17.0138274 O_TOT=     38.4503676 <-- SPRD
 Delta: O_D=  0.5958664E-11 O_OD= -0.5905785E-11 O_TOT=  0.5074788E-13 <-- DLTA
 ------------------------------------------------------------------------------

 Writing checkpoint file silicon.chk... done

 Cycle:     90
  WF centre and spread    1  ( -0.286165,  0.286165,  0.286165 )     9.61259193
  WF centre and spread    2  ( -0.286165, -0.286165, -0.286165 )     9.61259185
  WF centre and spread    3  (  0.286165,  0.286165, -0.286165 )     9.61259189
  WF centre and spread    4  (  0.286165, -0.286165,  0.286165 )     9.61259189
  Sum of centres and spreads ( -0.000000, -0.000000, -0.000000 )    38.45036756

     90     0.381E-13     0.0000001813       38.4503675609       0.51  <-- CONV
        O_D=      0.1477620 O_OD=     17.0138274 O_TOT=     38.4503676 <-- SPRD
 Delta: O_D=  0.3298337E-10 O_OD= -0.3294489E-10 O_TOT=  0.3806091E-13 <-- DLTA
 ------------------------------------------------------------------------------

 Writing checkpoint file silicon.chk... done

 Cycle:    100
  WF centre and spread    1  ( -0.286165,  0.286165,  0.286165 )     9.61259193
  WF centre and spread    2  ( -0.286165, -0.286165, -0.286165 )     9.61259185
  WF centre and spread    3  (  0.286165,  0.286165, -0.286165 )     9.61259188
  WF centre and spread    4  (  0.286165, -0.286165,  0.286165 )     9.61259189
  Sum of centres and spreads ( -0.000000, -0.000000, -0.000000 )    38.45036756

    100     0.571E-13     0.0000001639       38.4503675609       0.57  <-- CONV
        O_D=      0.1477620 O_OD=     17.0138274 O_TOT=     38.4503676 <-- SPRD
 Delta: O_D=  0.2106649E-10 O_OD= -0.2101280E-10 O_TOT=  0.5709137E-13 <-- DLTA
 ------------------------------------------------------------------------------

 Writing checkpoint file silicon.chk... done

 Final State
  WF centre and spread    1  ( -0.286165,  0.286165,  0.286165 )     9.61259193
  WF centre and spread    2  ( -0.286165, -0.286165, -0.286165 )     9.61259185
  WF centre and spread    3  (  0.286165,  0.286165, -0.286165 )     9.61259188
  WF centre and spread    4  (  0.286165, -0.286165,  0.286165 )     9.61259189
  Sum of centres and spreads ( -0.000000, -0.000000, -0.000000 )    38.45036756

        Spreads (Bohr^2)       Omega I      =    21.288778139
        ================       Omega D      =     0.147762005
                               Omega OD     =    17.013827417
   Final Spread (Bohr^2)       Omega Total  =    38.450367561
 ------------------------------------------------------------------------------

 Wannier centres written to file silicon_centres.xyz
 Time for wannierise            0.574 (sec)

 Writing checkpoint file silicon.chk... done

 *---------------------------------------------------------------------------*
 |                               PLOTTING                                    |
 *---------------------------------------------------------------------------*


 Calculating interpolated band-structure

 Time to calculate interpolated band structure       0.018 (sec)

      Wannier Function Num:    1       Maximum Im/Re Ratio =    0.000001
      Wannier Function Num:    2       Maximum Im/Re Ratio =    0.000001
      Wannier Function Num:    3       Maximum Im/Re Ratio =    0.000000
      Wannier Function Num:    4       Maximum Im/Re Ratio =    0.000000
  
 Time for plotting              1.475 (sec)
 Total Execution Time           2.079 (sec)

 *===========================================================================*
 |                             TIMING INFORMATION                            |
 *===========================================================================*
 |    Tag                                                Ncalls      Time (s)|
 |---------------------------------------------------------------------------|
 |kmesh: get                                        :         1         0.015|
 |overlap: allocate                                 :         1         0.000|
 |overlap: read                                     :         1         0.010|
 |wann: main                                        :         1         0.574|
 |plot: main                                        :         1         1.475|
 *---------------------------------------------------------------------------*

 All done: wannier90 exiting
