   2   2   1   0
  0.1200000E+02  0.2000000E-09  0.3000000E-09  0.4000000E-09  0.5000000E-15
  1.000000000000000E-004
  CAR 
 unknown system                          
     22.89664536    -27.39117544  400      1.85673788      1.00000000
    -27.391  0.0000E+00  0.0000E+00  0.0000E+00  0.0000E+00
    -27.265  0.0000E+00  0.0000E+00  0.0000E+00  0.0000E+00
    -27.139  0.0000E+00  0.0000E+00  0.0000E+00  0.0000E+00
    -27.013  0.0000E+00  0.0000E+00  0.0000E+00  0.0000E+00
    -26.887  0.0000E+00  0.0000E+00  0.0000E+00  0.0000E+00
    -26.761  0.0000E+00  0.0000E+00  0.0000E+00  0.0000E+00
    -26.635  0.0000E+00  0.0000E+00  0.0000E+00  0.0000E+00
    -26.509  0.0000E+00  0.0000E+00  0.0000E+00  0.0000E+00
    -26.383  0.0000E+00  0.0000E+00  0.0000E+00  0.0000E+00
    -26.257  0.0000E+00  0.0000E+00  0.0000E+00  0.0000E+00
    -26.131  0.0000E+00  0.0000E+00  0.0000E+00  0.0000E+00
    -26.005  0.0000E+00  0.0000E+00  0.0000E+00  0.0000E+00
    -25.879  0.0000E+00  0.0000E+00  0.0000E+00  0.0000E+00
    -25.753  0.0000E+00  0.0000E+00  0.0000E+00  0.0000E+00
    -25.627  0.6637E-12  0.0000E+00  0.8366E-13  0.0000E+00
    -25.501  0.8995E-07  0.0000E+00  0.1134E-07  0.0000E+00
    -25.375  0.5560E-03  0.0000E+00  0.7009E-04  0.0000E+00
    -25.249  0.1693E+00  0.0000E+00  0.2141E-01  0.0000E+00
    -25.123  0.3035E+01  0.9579E-11  0.4040E+00  0.1207E-11
    -24.997  0.4238E+01  0.6880E-06  0.9381E+00  0.8671E-07
    -24.870  0.4873E+00  0.2278E-02  0.9996E+00  0.2872E-03
    -24.744  0.3548E-02  0.3814E+00  0.1000E+01  0.4836E-01
    -24.618  0.1318E-05  0.3967E+01  0.1000E+01  0.5483E+00
    -24.492  0.2268E-10  0.3358E+01  0.1000E+01  0.9715E+00
    -24.366  0.0000E+00  0.2250E+00  0.1000E+01  0.9999E+00
    -24.240  0.0000E+00  0.9028E-03  0.1000E+01  0.1000E+01
    -24.114  0.0000E+00  0.1799E-06  0.1000E+01  0.1000E+01
    -23.988  0.0000E+00  0.1641E-11  0.1000E+01  0.1000E+01
    -23.862  0.0000E+00  0.0000E+00  0.1000E+01  0.1000E+01
    -23.736  0.0000E+00  0.0000E+00  0.1000E+01  0.1000E+01
    -23.610  0.0000E+00  0.0000E+00  0.1000E+01  0.1000E+01
    -23.484  0.0000E+00  0.0000E+00  0.1000E+01  0.1000E+01
    -23.358  0.0000E+00  0.0000E+00  0.1000E+01  0.1000E+01
    -23.232  0.0000E+00  0.0000E+00  0.1000E+01  0.1000E+01
    -23.106  0.0000E+00  0.0000E+00  0.1000E+01  0.1000E+01
    -22.980  0.0000E+00  0.0000E+00  0.1000E+01  0.1000E+01
    -22.854  0.0000E+00  0.0000E+00  0.1000E+01  0.1000E+01
    -22.728  0.0000E+00  0.0000E+00  0.1000E+01  0.1000E+01
    -22.602  0.0000E+00  0.0000E+00  0.1000E+01  0.1000E+01
    -22.476  0.0000E+00  0.0000E+00  0.1000E+01  0.1000E+01
    -22.350  0.0000E+00  0.0000E+00  0.1000E+01  0.1000E+01
    -22.224  0.0000E+00  0.0000E+00  0.1000E+01  0.1000E+01
    -22.098  0.0000E+00  0.0000E+00  0.1000E+01  0.1000E+01
    -21.972  0.0000E+00  0.0000E+00  0.1000E+01  0.1000E+01
    -21.846  0.0000E+00  0.0000E+00  0.1000E+01  0.1000E+01
    -21.720  0.0000E+00  0.0000E+00  0.1000E+01  0.1000E+01
    -21.594  0.0000E+00  0.0000E+00  0.1000E+01  0.1000E+01
    -21.468  0.0000E+00  0.0000E+00  0.1000E+01  0.1000E+01
    -21.342  0.0000E+00  0.0000E+00  0.1000E+01  0.1000E+01
    -21.215  0.0000E+00  0.0000E+00  0.1000E+01  0.1000E+01
    -21.089  0.0000E+00  0.0000E+00  0.1000E+01  0.1000E+01
    -20.963  0.0000E+00  0.0000E+00  0.1000E+01  0.1000E+01
    -20.837  0.0000E+00  0.0000E+00  0.1000E+01  0.1000E+01
    -20.711  0.0000E+00  0.0000E+00  0.1000E+01  0.1000E+01
    -20.585  0.0000E+00  0.0000E+00  0.1000E+01  0.1000E+01
    -20.459  0.0000E+00  0.0000E+00  0.1000E+01  0.1000E+01
    -20.333  0.0000E+00  0.0000E+00  0.1000E+01  0.1000E+01
    -20.207  0.0000E+00  0.0000E+00  0.1000E+01  0.1000E+01
    -20.081  0.0000E+00  0.0000E+00  0.1000E+01  0.1000E+01
    -19.955  0.0000E+00  0.0000E+00  0.1000E+01  0.1000E+01
    -19.829  0.0000E+00  0.0000E+00  0.1000E+01  0.1000E+01
    -19.703  0.0000E+00  0.0000E+00  0.1000E+01  0.1000E+01
    -19.577  0.0000E+00  0.0000E+00  0.1000E+01  0.1000E+01
    -19.451  0.0000E+00  0.0000E+00  0.1000E+01  0.1000E+01
    -19.325  0.0000E+00  0.0000E+00  0.1000E+01  0.1000E+01
    -19.199  0.0000E+00  0.0000E+00  0.1000E+01  0.1000E+01
    -19.073  0.0000E+00  0.0000E+00  0.1000E+01  0.1000E+01
    -18.947  0.0000E+00  0.0000E+00  0.1000E+01  0.1000E+01
    -18.821  0.0000E+00  0.0000E+00  0.1000E+01  0.1000E+01
    -18.695  0.0000E+00  0.0000E+00  0.1000E+01  0.1000E+01
    -18.569  0.0000E+00  0.0000E+00  0.1000E+01  0.1000E+01
    -18.443  0.0000E+00  0.0000E+00  0.1000E+01  0.1000E+01
    -18.317  0.0000E+00  0.0000E+00  0.1000E+01  0.1000E+01
    -18.191  0.0000E+00  0.0000E+00  0.1000E+01  0.1000E+01
    -18.065  0.0000E+00  0.0000E+00  0.1000E+01  0.1000E+01
    -17.939  0.0000E+00  0.0000E+00  0.1000E+01  0.1000E+01
    -17.813  0.0000E+00  0.0000E+00  0.1000E+01  0.1000E+01
    -17.687  0.0000E+00  0.0000E+00  0.1000E+01  0.1000E+01
    -17.560  0.0000E+00  0.0000E+00  0.1000E+01  0.1000E+01
    -17.434  0.0000E+00  0.0000E+00  0.1000E+01  0.1000E+01
    -17.308  0.0000E+00  0.0000E+00  0.1000E+01  0.1000E+01
    -17.182  0.0000E+00  0.0000E+00  0.1000E+01  0.1000E+01
    -17.056  0.0000E+00  0.0000E+00  0.1000E+01  0.1000E+01
    -16.930  0.0000E+00  0.0000E+00  0.1000E+01  0.1000E+01
    -16.804  0.0000E+00  0.0000E+00  0.1000E+01  0.1000E+01
    -16.678  0.0000E+00  0.0000E+00  0.1000E+01  0.1000E+01
    -16.552  0.0000E+00  0.0000E+00  0.1000E+01  0.1000E+01
    -16.426  0.0000E+00  0.0000E+00  0.1000E+01  0.1000E+01
    -16.300  0.0000E+00  0.0000E+00  0.1000E+01  0.1000E+01
    -16.174  0.0000E+00  0.0000E+00  0.1000E+01  0.1000E+01
    -16.048  0.0000E+00  0.0000E+00  0.1000E+01  0.1000E+01
    -15.922  0.0000E+00  0.0000E+00  0.1000E+01  0.1000E+01
    -15.796  0.0000E+00  0.0000E+00  0.1000E+01  0.1000E+01
    -15.670  0.0000E+00  0.0000E+00  0.1000E+01  0.1000E+01
    -15.544  0.0000E+00  0.0000E+00  0.1000E+01  0.1000E+01
    -15.418  0.0000E+00  0.0000E+00  0.1000E+01  0.1000E+01
    -15.292  0.0000E+00  0.0000E+00  0.1000E+01  0.1000E+01
    -15.166  0.0000E+00  0.0000E+00  0.1000E+01  0.1000E+01
    -15.040  0.0000E+00  0.0000E+00  0.1000E+01  0.1000E+01
    -14.914  0.0000E+00  0.0000E+00  0.1000E+01  0.1000E+01
    -14.788  0.0000E+00  0.0000E+00  0.1000E+01  0.1000E+01
    -14.662  0.0000E+00  0.0000E+00  0.1000E+01  0.1000E+01
    -14.536  0.0000E+00  0.0000E+00  0.1000E+01  0.1000E+01
    -14.410  0.0000E+00  0.0000E+00  0.1000E+01  0.1000E+01
    -14.284  0.0000E+00  0.0000E+00  0.1000E+01  0.1000E+01
    -14.158  0.0000E+00  0.0000E+00  0.1000E+01  0.1000E+01
    -14.032  0.0000E+00  0.0000E+00  0.1000E+01  0.1000E+01
    -13.905  0.0000E+00  0.0000E+00  0.1000E+01  0.1000E+01
    -13.779  0.0000E+00  0.0000E+00  0.1000E+01  0.1000E+01
    -13.653  0.0000E+00  0.0000E+00  0.1000E+01  0.1000E+01
    -13.527  0.0000E+00  0.0000E+00  0.1000E+01  0.1000E+01
    -13.401  0.0000E+00  0.0000E+00  0.1000E+01  0.1000E+01
    -13.275  0.0000E+00  0.0000E+00  0.1000E+01  0.1000E+01
    -13.149  0.0000E+00  0.0000E+00  0.1000E+01  0.1000E+01
    -13.023  0.0000E+00  0.0000E+00  0.1000E+01  0.1000E+01
    -12.897  0.0000E+00  0.0000E+00  0.1000E+01  0.1000E+01
    -12.771  0.0000E+00  0.0000E+00  0.1000E+01  0.1000E+01
    -12.645  0.0000E+00  0.0000E+00  0.1000E+01  0.1000E+01
    -12.519  0.0000E+00  0.0000E+00  0.1000E+01  0.1000E+01
    -12.393  0.0000E+00  0.0000E+00  0.1000E+01  0.1000E+01
    -12.267  0.0000E+00  0.0000E+00  0.1000E+01  0.1000E+01
    -12.141  0.0000E+00  0.0000E+00  0.1000E+01  0.1000E+01
    -12.015  0.0000E+00  0.0000E+00  0.1000E+01  0.1000E+01
    -11.889  0.0000E+00  0.0000E+00  0.1000E+01  0.1000E+01
    -11.763  0.0000E+00  0.0000E+00  0.1000E+01  0.1000E+01
    -11.637  0.1229E-12  0.0000E+00  0.1000E+01  0.1000E+01
    -11.511  0.2453E-07  0.0000E+00  0.1000E+01  0.1000E+01
    -11.385  0.2219E-03  0.0000E+00  0.1000E+01  0.1000E+01
    -11.259  0.9755E-01  0.0000E+00  0.1012E+01  0.1000E+01
    -11.133  0.2450E+01  0.0000E+00  0.1321E+01  0.1000E+01
    -11.007  0.4642E+01  0.0000E+00  0.1906E+01  0.1000E+01
    -10.881  0.7363E+00  0.8809E-15  0.1999E+01  0.1000E+01
    -10.755  0.7666E-02  0.5183E-09  0.2000E+01  0.1000E+01
    -10.629  0.4151E-05  0.1355E-04  0.2000E+01  0.1000E+01
    -10.503  0.1049E-09  0.1671E-01  0.2000E+01  0.1002E+01
    -10.376  0.0000E+00  0.1096E+01  0.2000E+01  0.1140E+01
    -10.250  0.0000E+00  0.4910E+01  0.2000E+01  0.1759E+01
    -10.124  0.0000E+00  0.1861E+01  0.2000E+01  0.1994E+01
     -9.998  0.0000E+00  0.5123E-01  0.2000E+01  0.2000E+01
     -9.872  0.0000E+00  0.7825E-04  0.2000E+01  0.2000E+01
     -9.746  0.0000E+00  0.5733E-08  0.2000E+01  0.2000E+01
     -9.620  0.0000E+00  0.1938E-13  0.2000E+01  0.2000E+01
     -9.494  0.0000E+00  0.0000E+00  0.2000E+01  0.2000E+01
     -9.368  0.0000E+00  0.0000E+00  0.2000E+01  0.2000E+01
     -9.242  0.0000E+00  0.0000E+00  0.2000E+01  0.2000E+01
     -9.116  0.0000E+00  0.0000E+00  0.2000E+01  0.2000E+01
     -8.990  0.0000E+00  0.0000E+00  0.2000E+01  0.2000E+01
     -8.864  0.0000E+00  0.0000E+00  0.2000E+01  0.2000E+01
     -8.738  0.0000E+00  0.0000E+00  0.2000E+01  0.2000E+01
     -8.612  0.0000E+00  0.0000E+00  0.2000E+01  0.2000E+01
     -8.486  0.0000E+00  0.0000E+00  0.2000E+01  0.2000E+01
     -8.360  0.0000E+00  0.0000E+00  0.2000E+01  0.2000E+01
     -8.234  0.4404E-15  0.0000E+00  0.2000E+01  0.2000E+01
     -8.108  0.4068E-09  0.0000E+00  0.2000E+01  0.2000E+01
     -7.982  0.1134E-04  0.0000E+00  0.2000E+01  0.2000E+01
     -7.856  0.1487E-01  0.5814E-13  0.2002E+01  0.2000E+01
     -7.730  0.1034E+01  0.1372E-07  0.2132E+01  0.2000E+01
     -7.604  0.4881E+01  0.1465E-03  0.2747E+01  0.2000E+01
     -7.478  0.1947E+01  0.7565E-01  0.2993E+01  0.2010E+01
     -7.352  0.5676E-01  0.2204E+01  0.3000E+01  0.2287E+01
     -7.226  0.9219E-04  0.4774E+01  0.3000E+01  0.2889E+01
     -7.100  0.7286E-08  0.8700E+00  0.3000E+01  0.2999E+01
     -6.974  0.3689E-05  0.1057E-01  0.3000E+01  0.3000E+01
     -6.848  0.7086E-02  0.6745E-05  0.3001E+01  0.3000E+01
     -6.721  0.7065E+00  0.2016E-09  0.3090E+01  0.3000E+01
     -6.595  0.4606E+01  0.0000E+00  0.3670E+01  0.3000E+01
     -6.469  0.2511E+01  0.0000E+00  0.3987E+01  0.3000E+01
     -6.343  0.1036E+00  0.0000E+00  0.4000E+01  0.3000E+01
     -6.217  0.2449E-03  0.0000E+00  0.4000E+01  0.3000E+01
     -6.091  0.2818E-07  0.0000E+00  0.4000E+01  0.3000E+01
     -5.965  0.1471E-12  0.0000E+00  0.4000E+01  0.3000E+01
     -5.839  0.0000E+00  0.3105E-12  0.4000E+01  0.3000E+01
     -5.713  0.0000E+00  0.5018E-07  0.4000E+01  0.3000E+01
     -5.587  0.0000E+00  0.3686E-03  0.4000E+01  0.3000E+01
     -5.461  0.0000E+00  0.1326E+00  0.4000E+01  0.3017E+01
     -5.335  0.0000E+00  0.2768E+01  0.4000E+01  0.3366E+01
     -5.209  0.1318E-10  0.4438E+01  0.4000E+01  0.3925E+01
     -5.083  0.8759E-06  0.5908E+00  0.4000E+01  0.3999E+01
     -4.957  0.2687E-02  0.5061E-02  0.4000E+01  0.4000E+01
     -4.831  0.4181E+00  0.2232E-05  0.4053E+01  0.4000E+01
     -4.705  0.4070E+01  0.1720E-08  0.4566E+01  0.4000E+01
     -4.579  0.3240E+01  0.3202E-04  0.4974E+01  0.4000E+01
     -4.453  0.2029E+00  0.2910E-01  0.5000E+01  0.4004E+01
     -4.327  0.7563E-03  0.1434E+01  0.5000E+01  0.4184E+01
     -4.201  0.1396E-06  0.4976E+01  0.5000E+01  0.4812E+01
     -4.075  0.1177E-11  0.1464E+01  0.5000E+01  0.4996E+01
     -3.949  0.0000E+00  0.3039E-01  0.5000E+01  0.5000E+01
     -3.823  0.0000E+00  0.3427E-04  0.5000E+01  0.5000E+01
     -3.697  0.0000E+00  0.1837E-08  0.5000E+01  0.5000E+01
     -3.571  0.0000E+00  0.4404E-14  0.5000E+01  0.5000E+01
     -3.445  0.0000E+00  0.0000E+00  0.5000E+01  0.5000E+01
     -3.319  0.0000E+00  0.0000E+00  0.5000E+01  0.5000E+01
     -3.193  0.0000E+00  0.0000E+00  0.5000E+01  0.5000E+01
     -3.066  0.0000E+00  0.0000E+00  0.5000E+01  0.5000E+01
     -2.940  0.0000E+00  0.0000E+00  0.5000E+01  0.5000E+01
     -2.814  0.0000E+00  0.0000E+00  0.5000E+01  0.5000E+01
     -2.688  0.0000E+00  0.0000E+00  0.5000E+01  0.5000E+01
     -2.562  0.0000E+00  0.0000E+00  0.5000E+01  0.5000E+01
     -2.436  0.0000E+00  0.0000E+00  0.5000E+01  0.5000E+01
     -2.310  0.0000E+00  0.0000E+00  0.5000E+01  0.5000E+01
     -2.184  0.0000E+00  0.0000E+00  0.5000E+01  0.5000E+01
     -2.058  0.0000E+00  0.0000E+00  0.5000E+01  0.5000E+01
     -1.932  0.0000E+00  0.0000E+00  0.5000E+01  0.5000E+01
     -1.806  0.0000E+00  0.0000E+00  0.5000E+01  0.5000E+01
     -1.680  0.0000E+00  0.0000E+00  0.5000E+01  0.5000E+01
     -1.554  0.0000E+00  0.0000E+00  0.5000E+01  0.5000E+01
     -1.428  0.0000E+00  0.0000E+00  0.5000E+01  0.5000E+01
     -1.302  0.0000E+00  0.0000E+00  0.5000E+01  0.5000E+01
     -1.176  0.0000E+00  0.0000E+00  0.5000E+01  0.5000E+01
     -1.050  0.0000E+00  0.0000E+00  0.5000E+01  0.5000E+01
     -0.924  0.0000E+00  0.0000E+00  0.5000E+01  0.5000E+01
     -0.798  0.0000E+00  0.0000E+00  0.5000E+01  0.5000E+01
     -0.672  0.0000E+00  0.0000E+00  0.5000E+01  0.5000E+01
     -0.546  0.0000E+00  0.0000E+00  0.5000E+01  0.5000E+01
     -0.420  0.0000E+00  0.0000E+00  0.5000E+01  0.5000E+01
     -0.294  0.0000E+00  0.0000E+00  0.5000E+01  0.5000E+01
     -0.168  0.0000E+00  0.0000E+00  0.5000E+01  0.5000E+01
     -0.042  0.0000E+00  0.0000E+00  0.5000E+01  0.5000E+01
      0.084  0.0000E+00  0.0000E+00  0.5000E+01  0.5000E+01
      0.210  0.0000E+00  0.0000E+00  0.5000E+01  0.5000E+01
      0.336  0.0000E+00  0.0000E+00  0.5000E+01  0.5000E+01
      0.462  0.0000E+00  0.0000E+00  0.5000E+01  0.5000E+01
      0.589  0.0000E+00  0.0000E+00  0.5000E+01  0.5000E+01
      0.715  0.0000E+00  0.0000E+00  0.5000E+01  0.5000E+01
      0.841  0.1508E-09  0.0000E+00  0.5000E+01  0.5000E+01
      0.967  0.5436E-05  0.0000E+00  0.5000E+01  0.5000E+01
      1.093  0.9168E-02  0.0000E+00  0.5001E+01  0.5000E+01
      1.219  0.8083E+00  0.0000E+00  0.5103E+01  0.5000E+01
      1.345  0.4719E+01  0.0000E+00  0.5698E+01  0.5000E+01
      1.471  0.2313E+01  0.0000E+00  0.5989E+01  0.5000E+01
      1.597  0.8484E-01  0.0000E+00  0.6000E+01  0.5000E+01
      1.723  0.1766E-03  0.0000E+00  0.6000E+01  0.5000E+01
      1.849  0.1781E-07  0.0000E+00  0.6000E+01  0.5000E+01
      1.975  0.1188E-06  0.0000E+00  0.6000E+01  0.5000E+01
      2.101  0.6756E-03  0.0000E+00  0.6000E+01  0.5000E+01
      2.227  0.1899E+00  0.0000E+00  0.6024E+01  0.5000E+01
      2.353  0.3164E+01  0.2173E-11  0.6423E+01  0.5000E+01
      2.479  0.4134E+01  0.2229E-06  0.6944E+01  0.5000E+01
      2.605  0.4427E+00  0.1048E-02  0.7000E+01  0.5000E+01
      2.731  0.2979E-02  0.2452E+00  0.7000E+01  0.5031E+01
      2.857  0.1019E-05  0.3457E+01  0.7000E+01  0.5467E+01
      2.983  0.1612E-10  0.3876E+01  0.7000E+01  0.5955E+01
      3.109  0.0000E+00  0.3968E+00  0.7000E+01  0.6005E+01
      3.235  0.0000E+00  0.1748E+01  0.7000E+01  0.6226E+01
      3.361  0.0000E+00  0.4940E+01  0.7000E+01  0.6848E+01
      3.487  0.0000E+00  0.1184E+01  0.7000E+01  0.6998E+01
      3.613  0.0000E+00  0.1953E-01  0.7000E+01  0.7000E+01
      3.739  0.0000E+00  0.1724E-04  0.7000E+01  0.7000E+01
      3.865  0.0000E+00  0.7184E-09  0.7000E+01  0.7000E+01
      3.991  0.0000E+00  0.1762E-14  0.7000E+01  0.7000E+01
      4.117  0.0000E+00  0.0000E+00  0.7000E+01  0.7000E+01
      4.244  0.0000E+00  0.0000E+00  0.7000E+01  0.7000E+01
      4.370  0.0000E+00  0.0000E+00  0.7000E+01  0.7000E+01
      4.496  0.0000E+00  0.0000E+00  0.7000E+01  0.7000E+01
      4.622  0.0000E+00  0.0000E+00  0.7000E+01  0.7000E+01
      4.748  0.0000E+00  0.0000E+00  0.7000E+01  0.7000E+01
      4.874  0.0000E+00  0.0000E+00  0.7000E+01  0.7000E+01
      5.000  0.0000E+00  0.0000E+00  0.7000E+01  0.7000E+01
      5.126  0.0000E+00  0.0000E+00  0.7000E+01  0.7000E+01
      5.252  0.0000E+00  0.0000E+00  0.7000E+01  0.7000E+01
      5.378  0.0000E+00  0.0000E+00  0.7000E+01  0.7000E+01
      5.504  0.0000E+00  0.0000E+00  0.7000E+01  0.7000E+01
      5.630  0.0000E+00  0.0000E+00  0.7000E+01  0.7000E+01
      5.756  0.0000E+00  0.0000E+00  0.7000E+01  0.7000E+01
      5.882  0.0000E+00  0.0000E+00  0.7000E+01  0.7000E+01
      6.008  0.0000E+00  0.0000E+00  0.7000E+01  0.7000E+01
      6.134  0.0000E+00  0.0000E+00  0.7000E+01  0.7000E+01
      6.260  0.0000E+00  0.0000E+00  0.7000E+01  0.7000E+01
      6.386  0.0000E+00  0.0000E+00  0.7000E+01  0.7000E+01
      6.512  0.0000E+00  0.0000E+00  0.7000E+01  0.7000E+01
      6.638  0.0000E+00  0.0000E+00  0.7000E+01  0.7000E+01
      6.764  0.0000E+00  0.0000E+00  0.7000E+01  0.7000E+01
      6.890  0.0000E+00  0.0000E+00  0.7000E+01  0.7000E+01
      7.016  0.0000E+00  0.0000E+00  0.7000E+01  0.7000E+01
      7.142  0.0000E+00  0.0000E+00  0.7000E+01  0.7000E+01
      7.268  0.0000E+00  0.0000E+00  0.7000E+01  0.7000E+01
      7.394  0.0000E+00  0.0000E+00  0.7000E+01  0.7000E+01
      7.520  0.0000E+00  0.0000E+00  0.7000E+01  0.7000E+01
      7.646  0.0000E+00  0.0000E+00  0.7000E+01  0.7000E+01
      7.772  0.0000E+00  0.0000E+00  0.7000E+01  0.7000E+01
      7.899  0.0000E+00  0.0000E+00  0.7000E+01  0.7000E+01
      8.025  0.0000E+00  0.0000E+00  0.7000E+01  0.7000E+01
      8.151  0.0000E+00  0.0000E+00  0.7000E+01  0.7000E+01
      8.277  0.0000E+00  0.0000E+00  0.7000E+01  0.7000E+01
      8.403  0.0000E+00  0.0000E+00  0.7000E+01  0.7000E+01
      8.529  0.0000E+00  0.0000E+00  0.7000E+01  0.7000E+01
      8.655  0.0000E+00  0.0000E+00  0.7000E+01  0.7000E+01
      8.781  0.0000E+00  0.0000E+00  0.7000E+01  0.7000E+01
      8.907  0.0000E+00  0.0000E+00  0.7000E+01  0.7000E+01
      9.033  0.0000E+00  0.0000E+00  0.7000E+01  0.7000E+01
      9.159  0.0000E+00  0.0000E+00  0.7000E+01  0.7000E+01
      9.285  0.0000E+00  0.0000E+00  0.7000E+01  0.7000E+01
      9.411  0.0000E+00  0.0000E+00  0.7000E+01  0.7000E+01
      9.537  0.0000E+00  0.0000E+00  0.7000E+01  0.7000E+01
      9.663  0.0000E+00  0.0000E+00  0.7000E+01  0.7000E+01
      9.789  0.0000E+00  0.0000E+00  0.7000E+01  0.7000E+01
      9.915  0.0000E+00  0.0000E+00  0.7000E+01  0.7000E+01
     10.041  0.0000E+00  0.0000E+00  0.7000E+01  0.7000E+01
     10.167  0.0000E+00  0.0000E+00  0.7000E+01  0.7000E+01
     10.293  0.9734E-13  0.0000E+00  0.7000E+01  0.7000E+01
     10.419  0.2048E-07  0.0000E+00  0.7000E+01  0.7000E+01
     10.545  0.1951E-03  0.0000E+00  0.7000E+01  0.7000E+01
     10.671  0.9019E-01  0.0000E+00  0.7011E+01  0.7000E+01
     10.797  0.2373E+01  0.3563E-12  0.7310E+01  0.7000E+01
     10.923  0.4686E+01  0.5575E-07  0.7901E+01  0.7000E+01
     11.049  0.7763E+00  0.3971E-03  0.7999E+01  0.7000E+01
     11.175  0.8483E-02  0.1386E+00  0.8000E+01  0.7018E+01
     11.301  0.4835E-05  0.2816E+01  0.8000E+01  0.7372E+01
     11.427  0.1288E-09  0.4404E+01  0.8000E+01  0.7927E+01
     11.554  0.0000E+00  0.5711E+00  0.8000E+01  0.7999E+01
     11.680  0.0000E+00  0.4752E-02  0.8000E+01  0.8000E+01
     11.806  0.0000E+00  0.2032E-05  0.8000E+01  0.8000E+01
     11.932  0.0000E+00  0.4035E-10  0.8000E+01  0.8000E+01
     12.058  0.0000E+00  0.0000E+00  0.8000E+01  0.8000E+01
     12.184  0.0000E+00  0.0000E+00  0.8000E+01  0.8000E+01
     12.310  0.0000E+00  0.0000E+00  0.8000E+01  0.8000E+01
     12.436  0.0000E+00  0.0000E+00  0.8000E+01  0.8000E+01
     12.562  0.0000E+00  0.0000E+00  0.8000E+01  0.8000E+01
     12.688  0.0000E+00  0.0000E+00  0.8000E+01  0.8000E+01
     12.814  0.0000E+00  0.0000E+00  0.8000E+01  0.8000E+01
     12.940  0.0000E+00  0.0000E+00  0.8000E+01  0.8000E+01
     13.066  0.0000E+00  0.0000E+00  0.8000E+01  0.8000E+01
     13.192  0.0000E+00  0.0000E+00  0.8000E+01  0.8000E+01
     13.318  0.0000E+00  0.0000E+00  0.8000E+01  0.8000E+01
     13.444  0.0000E+00  0.0000E+00  0.8000E+01  0.8000E+01
     13.570  0.0000E+00  0.0000E+00  0.8000E+01  0.8000E+01
     13.696  0.2061E-10  0.0000E+00  0.8000E+01  0.8000E+01
     13.822  0.1227E-05  0.0000E+00  0.8000E+01  0.8000E+01
     13.948  0.3379E-02  0.4404E-15  0.8000E+01  0.8000E+01
     14.074  0.4744E+00  0.3377E-09  0.8060E+01  0.8000E+01
     14.200  0.4209E+01  0.9883E-05  0.8591E+01  0.8000E+01
     14.326  0.3072E+01  0.1359E-01  0.8978E+01  0.8002E+01
     14.452  0.1749E+00  0.9885E+00  0.9000E+01  0.8126E+01
     14.578  0.5874E-03  0.4856E+01  0.9000E+01  0.8738E+01
     14.704  0.9727E-07  0.2014E+01  0.9000E+01  0.8992E+01
     14.830  0.7347E-12  0.6134E-01  0.9000E+01  0.9000E+01
     14.956  0.0000E+00  0.1044E-03  0.9000E+01  0.9000E+01
     15.082  0.0000E+00  0.8555E-08  0.9000E+01  0.9000E+01
     15.209  0.0000E+00  0.3171E-13  0.9000E+01  0.9000E+01
     15.335  0.0000E+00  0.0000E+00  0.9000E+01  0.9000E+01
     15.461  0.1476E-09  0.0000E+00  0.9000E+01  0.9000E+01
     15.587  0.5352E-05  0.0000E+00  0.9000E+01  0.9000E+01
     15.713  0.9074E-02  0.0000E+00  0.9001E+01  0.9000E+01
     15.839  0.8040E+00  0.3308E-12  0.9102E+01  0.9000E+01
     15.965  0.4714E+01  0.5267E-07  0.9697E+01  0.9000E+01
     16.091  0.2321E+01  0.3815E-03  0.9989E+01  0.9000E+01
     16.217  0.8554E-01  0.1353E+00  0.1000E+02  0.9017E+01
     16.343  0.1789E-03  0.2790E+01  0.1000E+02  0.9369E+01
     16.469  0.1814E-07  0.4422E+01  0.1000E+02  0.9926E+01
     16.595  0.8280E-13  0.5817E+00  0.1000E+02  0.9999E+01
     16.721  0.0000E+00  0.4917E-02  0.1000E+02  0.1000E+02
     16.847  0.0000E+00  0.2138E-05  0.1000E+02  0.1000E+02
     16.973  0.0000E+00  0.4317E-10  0.1000E+02  0.1000E+02
     17.099  0.0000E+00  0.0000E+00  0.1000E+02  0.1000E+02
     17.225  0.0000E+00  0.0000E+00  0.1000E+02  0.1000E+02
     17.351  0.0000E+00  0.0000E+00  0.1000E+02  0.1000E+02
     17.477  0.0000E+00  0.0000E+00  0.1000E+02  0.1000E+02
     17.603  0.0000E+00  0.0000E+00  0.1000E+02  0.1000E+02
     17.729  0.0000E+00  0.0000E+00  0.1000E+02  0.1000E+02
     17.855  0.0000E+00  0.0000E+00  0.1000E+02  0.1000E+02
     17.981  0.0000E+00  0.0000E+00  0.1000E+02  0.1000E+02
     18.107  0.0000E+00  0.0000E+00  0.1000E+02  0.1000E+02
     18.233  0.0000E+00  0.0000E+00  0.1000E+02  0.1000E+02
     18.359  0.0000E+00  0.0000E+00  0.1000E+02  0.1000E+02
     18.485  0.0000E+00  0.0000E+00  0.1000E+02  0.1000E+02
     18.611  0.1285E-09  0.0000E+00  0.1000E+02  0.1000E+02
     18.738  0.4828E-05  0.0000E+00  0.1000E+02  0.1000E+02
     18.864  0.8475E-02  0.8144E-10  0.1000E+02  0.1000E+02
     18.990  0.7760E+00  0.3436E-05  0.1010E+02  0.1000E+02
     19.116  0.4686E+01  0.6758E-02  0.1069E+02  0.1000E+02
     19.242  0.2373E+01  0.6891E+00  0.1099E+02  0.1009E+02
     19.368  0.9026E-01  0.4584E+01  0.1100E+02  0.1067E+02
     19.494  0.2006E-03  0.2547E+01  0.1100E+02  0.1099E+02
     19.620  0.8972E-02  0.1073E+00  0.1100E+02  0.1100E+02
     19.746  0.7993E+00  0.2597E-03  0.1110E+02  0.1100E+02
     19.872  0.4710E+01  0.3061E-07  0.1170E+02  0.1100E+02
     19.998  0.2330E+01  0.1638E-12  0.1199E+02  0.1100E+02
     20.124  0.8630E-01  0.2268E-10  0.1200E+02  0.1100E+02
     20.250  0.1816E-03  0.1318E-05  0.1200E+02  0.1100E+02
     20.376  0.1851E-07  0.3548E-02  0.1200E+02  0.1100E+02
     20.502  0.8545E-13  0.4873E+00  0.1200E+02  0.1106E+02
     20.628  0.0000E+00  0.4238E+01  0.1200E+02  0.1160E+02
     20.754  0.0000E+00  0.3035E+01  0.1200E+02  0.1198E+02
     20.880  0.0000E+00  0.1693E+00  0.1200E+02  0.1200E+02
     21.006  0.0000E+00  0.5560E-03  0.1200E+02  0.1200E+02
     21.132  0.0000E+00  0.8995E-07  0.1200E+02  0.1200E+02
     21.258  0.0000E+00  0.6642E-12  0.1200E+02  0.1200E+02
     21.384  0.0000E+00  0.0000E+00  0.1200E+02  0.1200E+02
     21.510  0.0000E+00  0.0000E+00  0.1200E+02  0.1200E+02
     21.636  0.0000E+00  0.0000E+00  0.1200E+02  0.1200E+02
     21.762  0.0000E+00  0.0000E+00  0.1200E+02  0.1200E+02
     21.888  0.0000E+00  0.0000E+00  0.1200E+02  0.1200E+02
     22.014  0.0000E+00  0.0000E+00  0.1200E+02  0.1200E+02
     22.140  0.0000E+00  0.0000E+00  0.1200E+02  0.1200E+02
     22.266  0.0000E+00  0.0000E+00  0.1200E+02  0.1200E+02
     22.393  0.0000E+00  0.0000E+00  0.1200E+02  0.1200E+02
     22.519  0.0000E+00  0.0000E+00  0.1200E+02  0.1200E+02
     22.645  0.0000E+00  0.0000E+00  0.1200E+02  0.1200E+02
     22.771  0.0000E+00  0.0000E+00  0.1200E+02  0.1200E+02
     22.897  0.0000E+00  0.0000E+00  0.1200E+02  0.1200E+02
     22.89664536    -27.39117544  400      1.85673788      1.00000000
    -27.391  0.0000E+00  0.0000E+00  0.0000E+00  0.0000E+00  0.0000E+00  0.0000E+00
    -27.265  0.0000E+00  0.0000E+00  0.0000E+00  0.0000E+00  0.0000E+00  0.0000E+00
    -27.139  0.0000E+00  0.0000E+00  0.0000E+00  0.0000E+00  0.0000E+00  0.0000E+00
    -27.013  0.0000E+00  0.0000E+00  0.0000E+00  0.0000E+00  0.0000E+00  0.0000E+00
    -26.887  0.0000E+00  0.0000E+00  0.0000E+00  0.0000E+00  0.0000E+00  0.0000E+00
    -26.761  0.0000E+00  0.0000E+00  0.0000E+00  0.0000E+00  0.0000E+00  0.0000E+00
    -26.635  0.0000E+00  0.0000E+00  0.0000E+00  0.0000E+00  0.0000E+00  0.0000E+00
    -26.509  0.0000E+00  0.0000E+00  0.0000E+00  0.0000E+00  0.0000E+00  0.0000E+00
    -26.383  0.0000E+00  0.0000E+00  0.0000E+00  0.0000E+00  0.0000E+00  0.0000E+00
    -26.257  0.0000E+00  0.0000E+00  0.0000E+00  0.0000E+00  0.0000E+00  0.0000E+00
    -26.131  0.0000E+00  0.0000E+00  0.0000E+00  0.0000E+00  0.0000E+00  0.0000E+00
    -26.005  0.0000E+00  0.0000E+00  0.0000E+00  0.0000E+00  0.0000E+00  0.0000E+00
    -25.879  0.0000E+00  0.0000E+00  0.0000E+00  0.0000E+00  0.0000E+00  0.0000E+00
    -25.753  0.0000E+00  0.0000E+00  0.0000E+00  0.0000E+00  0.0000E+00  0.0000E+00
    -25.627  0.1653E-12  0.0000E+00  0.7883E-13  0.0000E+00  0.0000E+00  0.0000E+00
    -25.501  0.2240E-07  0.0000E+00  0.1068E-07  0.0000E+00  0.0000E+00  0.0000E+00
    -25.375  0.1385E-03  0.0000E+00  0.6603E-04  0.0000E+00  0.0000E+00  0.0000E+00
    -25.249  0.4217E-01  0.0000E+00  0.2011E-01  0.0000E+00  0.0000E+00  0.0000E+00
    -25.123  0.7561E+00  0.2316E-11  0.3605E+00  0.1179E-11  0.0000E+00  0.0000E+00
    -24.997  0.1056E+01  0.1663E-06  0.5033E+00  0.8467E-07  0.0000E+00  0.0000E+00
    -24.870  0.1214E+00  0.5508E-03  0.5787E-01  0.2804E-03  0.0000E+00  0.0000E+00
    -24.744  0.8836E-03  0.9220E-01  0.4213E-03  0.4694E-01  0.0000E+00  0.0000E+00
    -24.618  0.3283E-06  0.9590E+00  0.1566E-06  0.4882E+00  0.0000E+00  0.0000E+00
    -24.492  0.5649E-11  0.8117E+00  0.2693E-11  0.4132E+00  0.0000E+00  0.0000E+00
    -24.366  0.0000E+00  0.5438E-01  0.0000E+00  0.2769E-01  0.0000E+00  0.0000E+00
    -24.240  0.0000E+00  0.2182E-03  0.0000E+00  0.1111E-03  0.0000E+00  0.0000E+00
    -24.114  0.0000E+00  0.4350E-07  0.0000E+00  0.2214E-07  0.0000E+00  0.0000E+00
    -23.988  0.0000E+00  0.3967E-12  0.0000E+00  0.2020E-12  0.0000E+00  0.0000E+00
    -23.862  0.0000E+00  0.0000E+00  0.0000E+00  0.0000E+00  0.0000E+00  0.0000E+00
    -23.736  0.0000E+00  0.0000E+00  0.0000E+00  0.0000E+00  0.0000E+00  0.0000E+00
    -23.610  0.0000E+00  0.0000E+00  0.0000E+00  0.0000E+00  0.0000E+00  0.0000E+00
    -23.484  0.0000E+00  0.0000E+00  0.0000E+00  0.0000E+00  0.0000E+00  0.0000E+00
    -23.358  0.0000E+00  0.0000E+00  0.0000E+00  0.0000E+00  0.0000E+00  0.0000E+00
    -23.232  0.0000E+00  0.0000E+00  0.0000E+00  0.0000E+00  0.0000E+00  0.0000E+00
    -23.106  0.0000E+00  0.0000E+00  0.0000E+00  0.0000E+00  0.0000E+00  0.0000E+00
    -22.980  0.0000E+00  0.0000E+00  0.0000E+00  0.0000E+00  0.0000E+00  0.0000E+00
    -22.854  0.0000E+00  0.0000E+00  0.0000E+00  0.0000E+00  0.0000E+00  0.0000E+00
    -22.728  0.0000E+00  0.0000E+00  0.0000E+00  0.0000E+00  0.0000E+00  0.0000E+00
    -22.602  0.0000E+00  0.0000E+00  0.0000E+00  0.0000E+00  0.0000E+00  0.0000E+00
    -22.476  0.0000E+00  0.0000E+00  0.0000E+00  0.0000E+00  0.0000E+00  0.0000E+00
    -22.350  0.0000E+00  0.0000E+00  0.0000E+00  0.0000E+00  0.0000E+00  0.0000E+00
    -22.224  0.0000E+00  0.0000E+00  0.0000E+00  0.0000E+00  0.0000E+00  0.0000E+00
    -22.098  0.0000E+00  0.0000E+00  0.0000E+00  0.0000E+00  0.0000E+00  0.0000E+00
    -21.972  0.0000E+00  0.0000E+00  0.0000E+00  0.0000E+00  0.0000E+00  0.0000E+00
    -21.846  0.0000E+00  0.0000E+00  0.0000E+00  0.0000E+00  0.0000E+00  0.0000E+00
    -21.720  0.0000E+00  0.0000E+00  0.0000E+00  0.0000E+00  0.0000E+00  0.0000E+00
    -21.594  0.0000E+00  0.0000E+00  0.0000E+00  0.0000E+00  0.0000E+00  0.0000E+00
    -21.468  0.0000E+00  0.0000E+00  0.0000E+00  0.0000E+00  0.0000E+00  0.0000E+00
    -21.342  0.0000E+00  0.0000E+00  0.0000E+00  0.0000E+00  0.0000E+00  0.0000E+00
    -21.215  0.0000E+00  0.0000E+00  0.0000E+00  0.0000E+00  0.0000E+00  0.0000E+00
    -21.089  0.0000E+00  0.0000E+00  0.0000E+00  0.0000E+00  0.0000E+00  0.0000E+00
    -20.963  0.0000E+00  0.0000E+00  0.0000E+00  0.0000E+00  0.0000E+00  0.0000E+00
    -20.837  0.0000E+00  0.0000E+00  0.0000E+00  0.0000E+00  0.0000E+00  0.0000E+00
    -20.711  0.0000E+00  0.0000E+00  0.0000E+00  0.0000E+00  0.0000E+00  0.0000E+00
    -20.585  0.0000E+00  0.0000E+00  0.0000E+00  0.0000E+00  0.0000E+00  0.0000E+00
    -20.459  0.0000E+00  0.0000E+00  0.0000E+00  0.0000E+00  0.0000E+00  0.0000E+00
    -20.333  0.0000E+00  0.0000E+00  0.0000E+00  0.0000E+00  0.0000E+00  0.0000E+00
    -20.207  0.0000E+00  0.0000E+00  0.0000E+00  0.0000E+00  0.0000E+00  0.0000E+00
    -20.081  0.0000E+00  0.0000E+00  0.0000E+00  0.0000E+00  0.0000E+00  0.0000E+00
    -19.955  0.0000E+00  0.0000E+00  0.0000E+00  0.0000E+00  0.0000E+00  0.0000E+00
    -19.829  0.0000E+00  0.0000E+00  0.0000E+00  0.0000E+00  0.0000E+00  0.0000E+00
    -19.703  0.0000E+00  0.0000E+00  0.0000E+00  0.0000E+00  0.0000E+00  0.0000E+00
    -19.577  0.0000E+00  0.0000E+00  0.0000E+00  0.0000E+00  0.0000E+00  0.0000E+00
    -19.451  0.0000E+00  0.0000E+00  0.0000E+00  0.0000E+00  0.0000E+00  0.0000E+00
    -19.325  0.0000E+00  0.0000E+00  0.0000E+00  0.0000E+00  0.0000E+00  0.0000E+00
    -19.199  0.0000E+00  0.0000E+00  0.0000E+00  0.0000E+00  0.0000E+00  0.0000E+00
    -19.073  0.0000E+00  0.0000E+00  0.0000E+00  0.0000E+00  0.0000E+00  0.0000E+00