    2    2    1    2
  0.1200000E+02  0.2000000E-09  0.3000000E-09  0.4000000E-09  0.5000000E-15
  1.000000000000000E-004
  CAR 
 unknown system                          
     11      1     12
 
  0.2500000E+00  0.2500000E+00  0.0000000E+00  0.1000000E+01
    1      -25.105365    -24.626999   1.000000   1.000000
    2      -11.099862    -10.300187   1.000000   1.000000
    3       -7.650862     -7.311995   1.000000   1.000000
    4       -6.626664     -5.310822   1.000000   1.000000
    5       -4.716698     -4.263304   1.000000   1.000000
    6        1.308099      2.863028   1.000000   0.000000
    7        2.366759      3.288489   0.000000   0.000000
    8       10.832297     11.324478   0.000000   0.000000
    9       14.184030     14.533221   0.000000   0.000000
   10       15.928337     16.366551   0.000000   0.000000
   11       19.080649     19.337455   0.000000   0.000000
   12       19.835649     20.610835   0.000000   0.000000
