 vasp.5.4.4.18Apr17-6-g9f103f2a35 (build Feb 29 2024 11:37:08) complex          
  
 executed on             LinuxIFC date 2024.03.26  13:35:58
 running on   12 total cores
 distrk:  each k-point on   12 cores,    1 groups
 distr:  one band on NCORES_PER_BAND=   1 cores,   12 groups


--------------------------------------------------------------------------------------------------------


 INCAR:
 POTCAR:   PAW_PBE N 08Apr2002                    
 POTCAR:   PAW_PBE O 08Apr2002                    

 ----------------------------------------------------------------------------- 
|                                                                             |
|           W    W    AA    RRRRR   N    N  II  N    N   GGGG   !!!           |
|           W    W   A  A   R    R  NN   N  II  NN   N  G    G  !!!           |
|           W    W  A    A  R    R  N N  N  II  N N  N  G       !!!           |
|           W WW W  AAAAAA  RRRRR   N  N N  II  N  N N  G  GGG   !            |
|           WW  WW  A    A  R   R   N   NN  II  N   NN  G    G                |
|           W    W  A    A  R    R  N    N  II  N    N   GGGG   !!!           |
|                                                                             |
|      For optimal performance we recommend to set                            |
|        NCORE= 4 - approx SQRT( number of cores)                             |
|      NCORE specifies how many cores store one orbital (NPAR=cpu/NCORE).     |
|      This setting can  greatly improve the performance of VASP for DFT.     |
|      The default,   NCORE=1            might be grossly inefficient         |
|      on modern multi-core architectures or massively parallel machines.     |
|      Do your own testing !!!!                                               |
|      Unfortunately you need to use the default for GW and RPA calculations. |
|      (for HF NCORE is supported but not extensively tested yet)             |
|                                                                             |
 ----------------------------------------------------------------------------- 

 POTCAR:   PAW_PBE N 08Apr2002                    
   VRHFIN =N: s2p3                                                              
   LEXCH  = PE                                                                  
   EATOM  =   264.5486 eV,   19.4438 Ry                                         
                                                                                
   TITEL  = PAW_PBE N 08Apr2002                                                 
   LULTRA =        F    use ultrasoft PP ?                                      
   IUNSCR =        0    unscreen: 0-lin 1-nonlin 2-no                           
   RPACOR =     .000    partial core radius                                     
   POMASS =   14.001; ZVAL   =    5.000    mass and valenz                      
   RCORE  =    1.500    outmost cutoff radius                                   
   RWIGS  =    1.400; RWIGS  =     .741    wigner-seitz radius (au A)           
   ENMAX  =  400.000; ENMIN  =  300.000 eV                                      
   ICORE  =        2    local potential                                         
   LCOR   =        T    correct aug charges                                     
   LPAW   =        T    paw PP                                                  
   EAUG   =  627.112                                                            
   DEXC   =     .000                                                            
   RMAX   =    2.247    core radius for proj-oper                               
   RAUG   =    1.300    factor for augmentation sphere                          
   RDEP   =    1.514    radius for radial grids                                 
   QCUT   =   -5.562; QGAM   =   11.124    optimization parameters              
                                                                                
   Description                                                                  
     l     E      TYP  RCUT    TYP  RCUT                                        
     0   .000     23  1.200                                                     
     0   .000     23  1.200                                                     
     1   .000     23  1.500                                                     
     1   .700     23  1.500                                                     
     2   .000      7  1.500                                                     
  local pseudopotential read in
  atomic valenz-charges read in
  non local Contribution for L=           0  read in
    real space projection operators read in
  non local Contribution for L=           0  read in
    real space projection operators read in
  non local Contribution for L=           1  read in
    real space projection operators read in
  non local Contribution for L=           1  read in
    real space projection operators read in
    PAW grid and wavefunctions read in
 
   number of l-projection  operators is LMAX  =           4
   number of lm-projection operators is LMMAX =           8
 
 POTCAR:   PAW_PBE O 08Apr2002                    
   VRHFIN =O: s2p4                                                              
   LEXCH  = PE                                                                  
   EATOM  =   432.3788 eV,   31.7789 Ry                                         
                                                                                
   TITEL  = PAW_PBE O 08Apr2002                                                 
   LULTRA =        F    use ultrasoft PP ?                                      
   IUNSCR =        0    unscreen: 0-lin 1-nonlin 2-no                           
   RPACOR =     .000    partial core radius                                     
   POMASS =   16.000; ZVAL   =    6.000    mass and valenz                      
   RCORE  =    1.520    outmost cutoff radius                                   
   RWIGS  =    1.550; RWIGS  =     .820    wigner-seitz radius (au A)           
   ENMAX  =  400.000; ENMIN  =  300.000 eV                                      
   ICORE  =        2    local potential                                         
   LCOR   =        T    correct aug charges                                     
   LPAW   =        T    paw PP                                                  
   EAUG   =  605.392                                                            
   DEXC   =     .000                                                            
   RMAX   =    2.264    core radius for proj-oper                               
   RAUG   =    1.300    factor for augmentation sphere                          
   RDEP   =    1.550    radius for radial grids                                 
   QCUT   =   -5.520; QGAM   =   11.041    optimization parameters              
                                                                                
   Description                                                                  
     l     E      TYP  RCUT    TYP  RCUT                                        
     0   .000     23  1.200                                                     
     0  -.700     23  1.200                                                     
     1   .000     23  1.520                                                     
     1   .600     23  1.520                                                     
     2   .000      7  1.500                                                     
  local pseudopotential read in
  atomic valenz-charges read in
  non local Contribution for L=           0  read in
    real space projection operators read in
  non local Contribution for L=           0  read in
    real space projection operators read in
  non local Contribution for L=           1  read in
    real space projection operators read in
  non local Contribution for L=           1  read in
    real space projection operators read in
    PAW grid and wavefunctions read in
 
   number of l-projection  operators is LMAX  =           4
   number of lm-projection operators is LMMAX =           8
 

 ----------------------------------------------------------------------------- 
|                                                                             |
|  ADVICE TO THIS USER RUNNING 'VASP/VAMP'   (HEAR YOUR MASTER'S VOICE ...):  |
|                                                                             |
|      You have a (more or less) 'small supercell' and for smaller cells      |
|      it is recommended  to use the reciprocal-space projection scheme!      |
|      The real space optimization is not  efficient for small cells and it   |
|      is also less accurate ...                                              |
|      Therefore set LREAL=.FALSE. in the  INCAR file                         |
|                                                                             |
 ----------------------------------------------------------------------------- 

 Optimization of the real space projectors (new method)

 maximal supplied QI-value         = 25.13
 optimisation between [QCUT,QGAM] = [ 12.32, 24.88] = [ 42.47,173.37] Ry 
 Optimized for a Real-space Cutoff    1.35 Angstroem

   l    n(q)    QCUT    max X(q) W(low)/X(q) W(high)/X(q)  e(spline) 
   0     10    12.315     4.511    0.23E-04    0.46E-05    0.84E-07
   0     10    12.315    37.799    0.59E-04    0.23E-05    0.59E-06
   1     10    12.315     2.478    0.27E-05    0.43E-06    0.89E-07
   1     10    12.315    13.693    0.13E-03    0.24E-03    0.75E-06
 Optimization of the real space projectors (new method)

 maximal supplied QI-value         = 24.76
 optimisation between [QCUT,QGAM] = [ 12.38, 25.00] = [ 42.90,175.06] Ry 
 Optimized for a Real-space Cutoff    1.16 Angstroem

   l    n(q)    QCUT    max X(q) W(low)/X(q) W(high)/X(q)  e(spline) 
   0      9    12.378     4.192    0.16E-04    0.96E-05    0.57E-07
   0      9    12.378     8.473    0.17E-03    0.81E-05    0.33E-06
   1      8    12.378     2.474    0.24E-04    0.82E-05    0.33E-07
   1      8    12.378     3.912    0.18E-03    0.14E-03    0.26E-06
 PAW_PBE N 08Apr2002                    :
 energy of atom  1       EATOM= -264.5486
 kinetic energy error for atom=    0.0103 (will be added to EATOM!!)
 PAW_PBE O 08Apr2002                    :
 energy of atom  2       EATOM= -432.3788
 kinetic energy error for atom=    0.0168 (will be added to EATOM!!)
 
 
 POSCAR: sisl output                             
  positions in direct lattice
  velocities in cartesian coordinates
 exchange correlation table for  LEXCH =        8
   RHO(1)=    0.500       N(1)  =     2000
   RHO(2)=  100.500       N(2)  =     4000
 


--------------------------------------------------------------------------------------------------------


 ion  position               nearest neighbor table
   1  0.500  0.500  0.560-   2 1.19
   2  0.500  0.500  0.263-   1 1.19
 
  LATTYP: Found a simple orthorhombic cell.
 ALAT       =     2.0000000000
 B/A-ratio  =     1.5000000000
 C/A-ratio  =     2.0000000000
  
  Lattice vectors:
  
 A1 = (   2.0000000000,   0.0000000000,   0.0000000000)
 A2 = (   0.0000000000,   3.0000000000,   0.0000000000)
 A3 = (   0.0000000000,   0.0000000000,   4.0000000000)


Analysis of symmetry for initial positions (statically):
=====================================================================
 Subroutine PRICEL returns:
 Original cell was already a primitive cell.
 

 Routine SETGRP: Setting up the symmetry group for a 
 simple orthorhombic supercell.


 Subroutine GETGRP returns: Found  4 space group operations
 (whereof  4 operations were pure point group operations)
 out of a pool of  8 trial point group operations.


The static configuration has the point symmetry C_2v.


Analysis of symmetry for dynamics (positions and initial velocities):
=====================================================================
 Subroutine PRICEL returns:
 Original cell was already a primitive cell.
 

 Routine SETGRP: Setting up the symmetry group for a 
 simple orthorhombic supercell.


 Subroutine GETGRP returns: Found  4 space group operations
 (whereof  4 operations were pure point group operations)
 out of a pool of  8 trial point group operations.


The dynamic configuration has the point symmetry C_2v.


Analysis of constrained symmetry for selective dynamics:
=====================================================================
 Subroutine PRICEL returns:
 Original cell was already a primitive cell.
 

 Routine SETGRP: Setting up the symmetry group for a 
 simple orthorhombic supercell.


 Subroutine GETGRP returns: Found  4 space group operations
 (whereof  4 operations were pure point group operations)
 out of a pool of  8 trial point group operations.


The constrained configuration has the point symmetry C_2v.


Analysis of structural, dynamic, and magnetic symmetry:
=====================================================================
 Subroutine PRICEL returns:
 Original cell was already a primitive cell.
 

 Routine SETGRP: Setting up the symmetry group for a 
 simple orthorhombic supercell.


 Subroutine GETGRP returns: Found  4 space group operations
 (whereof  4 operations were pure point group operations)
 out of a pool of  8 trial point group operations.


The magnetic configuration has the point symmetry C_2v.


 Subroutine INISYM returns: Found  4 space group operations
 (whereof  4 operations are pure point group operations),
 and found     1 'primitive' translations

 
 
 KPOINTS: Automatic generation                    

Automatic generation of k-mesh.
Space group operators:
 irot       det(A)        alpha          n_x          n_y          n_z        tau_x        tau_y        tau_z
    1     1.000000     0.000000     1.000000     0.000000     0.000000     0.000000     0.000000     0.000000
    2     1.000000   180.000000     0.000000     0.000000     1.000000     0.000000     0.000000     0.000000
    3    -1.000000   180.000000     0.000000     1.000000     0.000000     0.000000     0.000000     0.000000
    4    -1.000000   180.000000     1.000000     0.000000     0.000000     0.000000     0.000000     0.000000
 
 Subroutine IBZKPT returns following result:
 ===========================================
 
 Found      1 irreducible k-points:
 
 Following reciprocal coordinates:
            Coordinates               Weight
  0.250000  0.250000  0.000000      4.000000
 
 Following cartesian coordinates:
            Coordinates               Weight
  0.125000  0.083333  0.000000      4.000000
 


--------------------------------------------------------------------------------------------------------




 Dimension of arrays:
   k-points           NKPTS =      1   k-points in BZ     NKDIM =      1   number of bands    NBANDS=     12
   number of dos      NEDOS =    400   number of ions     NIONS =      2
   non local maximal  LDIM  =      4   non local SUM 2l+1 LMDIM =      8
   total plane-waves  NPLWV =  12288
   max r-space proj   IRMAX =   5279   max aug-charges    IRDMAX=   6841
   dimension x,y,z NGX =    16 NGY =   24 NGZ =   32
   dimension x,y,z NGXF=    32 NGYF=   48 NGZF=   64
   support grid    NGXF=    32 NGYF=   48 NGZF=   64
   ions per type =               1   1
   NGX,Y,Z   is equivalent  to a cutoff of  13.30, 13.30, 13.30 a.u.
   NGXF,Y,Z  is equivalent  to a cutoff of  26.60, 26.60, 26.60 a.u.

 SYSTEM =  unknown system                          
 POSCAR =  sisl output                             

 Startparameter for this run:
   NWRITE =      2    write-flag & timer
   PREC   = accura    normal or accurate (medium, high low for compatibility)
   ISTART =      0    job   : 0-new  1-cont  2-samecut
   ICHARG =      2    charge: 1-file 2-atom 10-const
   ISPIN  =      2    spin polarized calculation?
   LNONCOLLINEAR =      F non collinear calculations
   LSORBIT =      F    spin-orbit coupling
   INIWAV =      1    electr: 0-lowe 1-rand  2-diag
   LASPH  =      F    aspherical Exc in radial PAW
   METAGGA=      F    non-selfconsistent MetaGGA calc.

 Electronic Relaxation 1
   ENCUT  =  600.0 eV  44.10 Ry    6.64 a.u.   3.99  5.99  7.99*2*pi/ulx,y,z
   ENINI  =  600.0     initial cutoff
   ENAUG  =  627.1 eV  augmentation charge cutoff
   NELM   =     60;   NELMIN=  2; NELMDL=  0     # of ELM steps 
   EDIFF  = 0.1E-03   stopping-criterion for ELM
   LREAL  =      T    real-space projection
   NLSPLINE    = F    spline interpolate recip. space projectors
   LCOMPAT=      F    compatible to vasp.4.4
   GGA_COMPAT  = T    GGA compatible to vasp.4.4-vasp.4.6
   LMAXPAW     = -100 max onsite density
   LMAXMIX     =    2 max onsite mixed and CHGCAR
   VOSKOWN=      0    Vosko Wilk Nusair interpolation
   ROPT   =   -0.00025  -0.00025
 Ionic relaxation
   EDIFFG = 0.1E-02   stopping-criterion for IOM
   NSW    =      0    number of steps for IOM
   NBLOCK =      1;   KBLOCK =      1    inner block; outer block 
   IBRION =     -1    ionic relax: 0-MD 1-quasi-New 2-CG
   NFREE  =      0    steps in history (QN), initial steepest desc. (CG)
   ISIF   =      2    stress and relaxation
   IWAVPR =     10    prediction:  0-non 1-charg 2-wave 3-comb
   ISYM   =      2    0-nonsym 1-usesym 2-fastsym
   LCORR  =      T    Harris-Foulkes like correction to forces

   POTIM  = 0.5000    time-step for ionic-motion
   TEIN   =    0.0    initial temperature
   TEBEG  =    0.0;   TEEND  =   0.0 temperature during run
   SMASS  =  -3.00    Nose mass-parameter (am)
   estimated Nose-frequenzy (Omega)   =  0.10E-29 period in steps =****** mass=  -0.914E-28a.u.
   SCALEE = 1.0000    scale energy and forces
   NPACO  =    256;   APACO  = 16.0  distance and # of slots for P.C.
   PSTRESS=    0.0 pullay stress

  Mass of Ions in am
   POMASS =  14.00 16.00
  Ionic Valenz
   ZVAL   =   5.00  6.00
  Atomic Wigner-Seitz radii
   RWIGS  =  -1.00 -1.00
  virtual crystal weights 
   VCA    =   1.00  1.00
   NELECT =      11.0000    total number of electrons
   NUPDOWN=      -1.0000    fix difference up-down

 DOS related values:
   EMIN   =  10.00;   EMAX   =-10.00  energy-range for DOS
   EFERMI =   0.00
   ISMEAR =     0;   SIGMA  =   0.10  broadening in eV -4-tet -1-fermi 0-gaus

 Electronic relaxation 2 (details)
   IALGO  =     68    algorithm
   LDIAG  =      T    sub-space diagonalisation (order eigenvalues)
   LSUBROT=      F    optimize rotation matrix (better conditioning)
   TURBO    =      0    0=normal 1=particle mesh
   IRESTART =      0    0=no restart 2=restart with 2 vectors
   NREBOOT  =      0    no. of reboots
   NMIN     =      0    reboot dimension
   EREF     =   0.00    reference energy to select bands
   IMIX   =      4    mixing-type and parameters
     AMIX     =   0.40;   BMIX     =  1.00
     AMIX_MAG =   1.60;   BMIX_MAG =  1.00
     AMIN     =   0.10
     WC   =   100.;   INIMIX=   1;  MIXPRE=   1;  MAXMIX= -45

 Intra band minimization:
   WEIMIN = 0.0000     energy-eigenvalue tresh-hold
   EBREAK =  0.21E-05  absolut break condition
   DEPER  =   0.30     relativ break condition  

   TIME   =   0.40     timestep for ELM

  volume/ion in A,a.u.               =      12.00        80.98
  Fermi-wavevector in a.u.,A,eV,Ry     =   1.262221  2.385251 21.676818  1.593201
  Thomas-Fermi vector in A             =   2.395640
 
 Write flags
   LWAVE        =      F    write WAVECAR
   LDOWNSAMPLE  =      F    k-point downsampling of WAVECAR
   LCHARG       =      F    write CHGCAR
   LVTOT        =      F    write LOCPOT, total local potential
   LVHAR        =      F    write LOCPOT, Hartree potential only
   LELF         =      F    write electronic localiz. function (ELF)
   LORBIT       =     10    0 simple, 1 ext, 2 COOP (PROOUT), +10 PAW based schemes


 Dipole corrections
   LMONO  =      F    monopole corrections only (constant potential shift)
   LDIPOL =      F    correct potential (dipole corrections)
   IDIPOL =      0    1-x, 2-y, 3-z, 4-all directions 
   EPSILON=  1.0000000 bulk dielectric constant

 Exchange correlation treatment:
   GGA     =    --    GGA type
   LEXCH   =     8    internal setting for exchange type
   VOSKOWN=      0    Vosko Wilk Nusair interpolation
   LHFCALC =     F    Hartree Fock is set to
   LHFONE  =     F    Hartree Fock one center treatment
   AEXX    =    0.0000 exact exchange contribution

 Linear response parameters
   LEPSILON=     F    determine dielectric tensor
   LRPA    =     F    only Hartree local field effects (RPA)
   LNABLA  =     F    use nabla operator in PAW spheres
   LVEL    =     F    velocity operator in full k-point grid
   LINTERFAST=   F  fast interpolation
   KINTER  =     0    interpolate to denser k-point grid
   CSHIFT  =0.1000    complex shift for real part using Kramers Kronig
   OMEGAMAX=  -1.0    maximum frequency
   DEG_THRESHOLD= 0.2000000E-02 threshold for treating states as degnerate
   RTIME   =   -0.100 relaxation time in fs
  (WPLASMAI=    0.000 imaginary part of plasma frequency in eV, 0.658/RTIME)
   DFIELD  = 0.0000000 0.0000000 0.0000000 field for delta impulse in time
 
 Orbital magnetization related:
   ORBITALMAG=     F  switch on orbital magnetization
   LCHIMAG   =     F  perturbation theory with respect to B field
   DQ        =  0.001000  dq finite difference perturbation B field
   LLRAUG    =     F  two centre corrections for induced B field



--------------------------------------------------------------------------------------------------------


 Static calculation
 charge density and potential will be updated during run
 spin polarized calculation
 RMM-DIIS sequential band-by-band and
  variant of blocked Davidson during initial phase
 perform sub-space diagonalisation
    before iterative eigenvector-optimisation
 modified Broyden-mixing scheme, WC =      100.0
 initial mixing is a Kerker type mixing with AMIX =  0.4000 and BMIX =      1.0000
 Hartree-type preconditioning will be used
 using additional bands            6
 real space projection scheme for non local part
 calculate Harris-corrections to forces 
   (improved forces if not selfconsistent)
 use gradient corrections 
 use of overlap-Matrix (Vanderbilt PP)
 Gauss-broadening in eV      SIGMA  =   0.10


--------------------------------------------------------------------------------------------------------


  energy-cutoff  :      600.00
  volume of cell :       24.00
      direct lattice vectors                 reciprocal lattice vectors
     2.000000000  0.000000000  0.000000000     0.500000000  0.000000000  0.000000000
     0.000000000  3.000000000  0.000000000     0.000000000  0.333333333  0.000000000
     0.000000000  0.000000000  4.000000000     0.000000000  0.000000000  0.250000000

  length of vectors
     2.000000000  3.000000000  4.000000000     0.500000000  0.333333333  0.250000000


 
 k-points in units of 2pi/SCALE and weight: Automatic generation                    
   0.12500000  0.08333333  0.00000000       1.000
 
 k-points in reciprocal lattice and weights: Automatic generation                    
   0.25000000  0.25000000  0.00000000       1.000
 
 position of ions in fractional coordinates (direct lattice) 
   0.50000000  0.50000000  0.55967097
   0.50000000  0.50000000  0.26270557
 
 position of ions in cartesian coordinates  (Angst):
   1.00000000  1.50000000  2.23868389
   1.00000000  1.50000000  1.05082228
 


--------------------------------------------------------------------------------------------------------


 k-point  1 :   0.2500 0.2500 0.0000  plane waves:     798

 maximum and minimum number of plane-waves per node :       798      798

 maximum number of plane-waves:       798
 maximum index in each direction: 
   IXMAX=    3   IYMAX=    5   IZMAX=    7
   IXMIN=   -4   IYMIN=   -6   IZMIN=   -7


 serial   3D FFT for wavefunctions
 parallel 3D FFT for charge:
    minimum data exchange during FFTs selected (reduces bandwidth)


 total amount of memory used by VASP MPI-rank0    32917. kBytes
=======================================================================

   base      :      30000. kBytes
   nonlr-proj:        764. kBytes
   fftplans  :        364. kBytes
   grid      :       1751. kBytes
   one-center:         12. kBytes
   wavefun   :         26. kBytes
 
     INWAV:  cpu time    0.0000: real time    0.0001
 Broyden mixing: mesh for mixing (old mesh)
   NGX =  7   NGY = 11   NGZ = 15
  (NGX  = 32   NGY  = 48   NGZ  = 64)
  gives a total of   1155 points

 initial charge density was supplied:
 charge density of overlapping atoms calculated
 number of electron      11.0000000 magnetization       2.0000000
 keeping initial charge density in first step


--------------------------------------------------------------------------------------------------------


 Maximum index for non-local projection operator         5061
 Maximum index for augmentation-charges          585 (set IRDMAX)


--------------------------------------------------------------------------------------------------------


 First call to EWALD:  gamma=   0.614
 Maximum number of real-space cells 4x 3x 2
 Maximum number of reciprocal cells 2x 3x 4

    FEWALD:  cpu time    0.0010: real time    0.0010


--------------------------------------- Iteration      1(   1)  ---------------------------------------


    POTLOK:  cpu time    0.0209: real time    0.5267
    SETDIJ:  cpu time    0.0028: real time    0.0030
     EDDAV:  cpu time    0.0056: real time    0.0059
       DOS:  cpu time    0.0003: real time    0.0004
    --------------------------------------------
      LOOP:  cpu time    0.0296: real time    0.5359

 eigenvalue-minimisations  :    48
 total energy-change (2. order) : 0.3816651E+02  (-0.7640027E+03)
 number of electron      11.0000000 magnetization       2.0000000
 augmentation part       11.0000000 magnetization       2.0000000

 Free energy of the ion-electron system (eV)
  ---------------------------------------------------
  alpha Z        PSCENC =        20.47869267
  Ewald energy   TEWEN  =      -397.32884096
  -Hartree energ DENC   =      -264.42272684
  -exchange      EXHF   =         0.00000000
  -V(xc)+E(xc)   XCENC  =        47.64709041
  PAW double counting   =       357.79445642     -361.01262233
  entropy T*S    EENTRO =        -0.00000000
  eigenvalues    EBANDS =       -61.88982583
  atomic energy  EATOM  =       696.90028792
  Solvation  Ediel_sol  =         0.00000000
  ---------------------------------------------------
  free energy    TOTEN  =        38.16651144 eV

  energy without entropy =       38.16651144  energy(sigma->0) =       38.16651144


--------------------------------------------------------------------------------------------------------




--------------------------------------- Iteration      1(   2)  ---------------------------------------


     EDDAV:  cpu time    0.0057: real time    0.0059
       DOS:  cpu time    0.0001: real time    0.0001
    --------------------------------------------
      LOOP:  cpu time    0.0058: real time    0.0059

 eigenvalue-minimisations  :    60
 total energy-change (2. order) :-0.4912138E+02  (-0.4912138E+02)
 number of electron      11.0000000 magnetization       2.0000000
 augmentation part       11.0000000 magnetization       2.0000000

 Free energy of the ion-electron system (eV)
  ---------------------------------------------------
  alpha Z        PSCENC =        20.47869267
  Ewald energy   TEWEN  =      -397.32884096
  -Hartree energ DENC   =      -264.42272684
  -exchange      EXHF   =         0.00000000
  -V(xc)+E(xc)   XCENC  =        47.64709041
  PAW double counting   =       357.79445642     -361.01262233
  entropy T*S    EENTRO =        -0.00000000
  eigenvalues    EBANDS =      -111.01120543
  atomic energy  EATOM  =       696.90028792
  Solvation  Ediel_sol  =         0.00000000
  ---------------------------------------------------
  free energy    TOTEN  =       -10.95486816 eV

  energy without entropy =      -10.95486815  energy(sigma->0) =      -10.95486815


--------------------------------------------------------------------------------------------------------




--------------------------------------- Iteration      1(   3)  ---------------------------------------


     EDDAV:  cpu time    0.0069: real time    0.0070
       DOS:  cpu time    0.0001: real time    0.0001
    --------------------------------------------
      LOOP:  cpu time    0.0070: real time    0.0071

 eigenvalue-minimisations  :    72
 total energy-change (2. order) :-0.5315234E+00  (-0.5315234E+00)
 number of electron      11.0000000 magnetization       2.0000000
 augmentation part       11.0000000 magnetization       2.0000000

 Free energy of the ion-electron system (eV)
  ---------------------------------------------------
  alpha Z        PSCENC =        20.47869267
  Ewald energy   TEWEN  =      -397.32884096
  -Hartree energ DENC   =      -264.42272684
  -exchange      EXHF   =         0.00000000
  -V(xc)+E(xc)   XCENC  =        47.64709041
  PAW double counting   =       357.79445642     -361.01262233
  entropy T*S    EENTRO =        -0.00000041
  eigenvalues    EBANDS =      -111.54272840
  atomic energy  EATOM  =       696.90028792
  Solvation  Ediel_sol  =         0.00000000
  ---------------------------------------------------
  free energy    TOTEN  =       -11.48639153 eV

  energy without entropy =      -11.48639112  energy(sigma->0) =      -11.48639133


--------------------------------------------------------------------------------------------------------




--------------------------------------- Iteration      1(   4)  ---------------------------------------


     EDDAV:  cpu time    0.0051: real time    0.0053
       DOS:  cpu time    0.0001: real time    0.0001
    --------------------------------------------
      LOOP:  cpu time    0.0052: real time    0.0053

 eigenvalue-minimisations  :    60
 total energy-change (2. order) :-0.5252403E-03  (-0.5252404E-03)
 number of electron      11.0000000 magnetization       2.0000000
 augmentation part       11.0000000 magnetization       2.0000000

 Free energy of the ion-electron system (eV)
  ---------------------------------------------------
  alpha Z        PSCENC =        20.47869267
  Ewald energy   TEWEN  =      -397.32884096
  -Hartree energ DENC   =      -264.42272684
  -exchange      EXHF   =         0.00000000
  -V(xc)+E(xc)   XCENC  =        47.64709041
  PAW double counting   =       357.79445642     -361.01262233
  entropy T*S    EENTRO =        -0.00000041
  eigenvalues    EBANDS =      -111.54325364
  atomic energy  EATOM  =       696.90028792
  Solvation  Ediel_sol  =         0.00000000
  ---------------------------------------------------
  free energy    TOTEN  =       -11.48691677 eV

  energy without entropy =      -11.48691636  energy(sigma->0) =      -11.48691657


--------------------------------------------------------------------------------------------------------




--------------------------------------- Iteration      1(   5)  ---------------------------------------


     EDDAV:  cpu time    0.0050: real time    0.0051
       DOS:  cpu time    0.0001: real time    0.0001
    CHARGE:  cpu time    0.0028: real time    0.0028
    MIXING:  cpu time    0.0004: real time    0.0005
    --------------------------------------------
      LOOP:  cpu time    0.0083: real time    0.0086

 eigenvalue-minimisations  :    60
 total energy-change (2. order) :-0.1460951E-06  (-0.1459993E-06)
 number of electron      11.0000001 magnetization       0.8614408
 augmentation part        0.7845977 magnetization       0.0526466

 Broyden mixing:
  rms(total) = 0.75910E+00    rms(broyden)= 0.75711E+00
  rms(prec ) = 0.10648E+01
  weight for this iteration     100.00

 Free energy of the ion-electron system (eV)
  ---------------------------------------------------
  alpha Z        PSCENC =        20.47869267
  Ewald energy   TEWEN  =      -397.32884096
  -Hartree energ DENC   =      -264.42272684
  -exchange      EXHF   =         0.00000000
  -V(xc)+E(xc)   XCENC  =        47.64709041
  PAW double counting   =       357.79445642     -361.01262233
  entropy T*S    EENTRO =        -0.00000041
  eigenvalues    EBANDS =      -111.54325378
  atomic energy  EATOM  =       696.90028792
  Solvation  Ediel_sol  =         0.00000000
  ---------------------------------------------------
  free energy    TOTEN  =       -11.48691692 eV

  energy without entropy =      -11.48691651  energy(sigma->0) =      -11.48691671


--------------------------------------------------------------------------------------------------------




--------------------------------------- Iteration      1(   6)  ---------------------------------------


    POTLOK:  cpu time    0.0067: real time    0.0068
    SETDIJ:  cpu time    0.0021: real time    0.0021
    EDDIAG:  cpu time    0.0050: real time    0.0053
  RMM-DIIS:  cpu time    0.0026: real time    0.0026
    ORTHCH:  cpu time    0.0002: real time    0.0002
       DOS:  cpu time    0.0001: real time    0.0001
    CHARGE:  cpu time    0.0023: real time    0.0023
    MIXING:  cpu time    0.0002: real time    0.0002
    --------------------------------------------
      LOOP:  cpu time    0.0190: real time    0.0196

 eigenvalue-minimisations  :    48
 total energy-change (2. order) :-0.1523868E+00  (-0.1025368E+00)
 number of electron      11.0000001 magnetization       0.9930638
 augmentation part        0.7445592 magnetization       0.1775909

 Broyden mixing:
  rms(total) = 0.32341E+00    rms(broyden)= 0.32302E+00
  rms(prec ) = 0.51870E+00
  weight for this iteration     100.00

 eigenvalues of (default mixing * dielectric matrix)
  average eigenvalue GAMMA=   0.7722
  0.7722

 Free energy of the ion-electron system (eV)
  ---------------------------------------------------
  alpha Z        PSCENC =        20.47869267
  Ewald energy   TEWEN  =      -397.32884096
  -Hartree energ DENC   =      -269.32300097
  -exchange      EXHF   =         0.00000000
  -V(xc)+E(xc)   XCENC  =        47.93213863
  PAW double counting   =       396.40815368     -399.68369918
  entropy T*S    EENTRO =        -0.00000000
  eigenvalues    EBANDS =      -107.02303547
  atomic energy  EATOM  =       696.90028792
  Solvation  Ediel_sol  =         0.00000000
  ---------------------------------------------------
  free energy    TOTEN  =       -11.63930368 eV

  energy without entropy =      -11.63930368  energy(sigma->0) =      -11.63930368


--------------------------------------------------------------------------------------------------------




--------------------------------------- Iteration      1(   7)  ---------------------------------------


    POTLOK:  cpu time    0.0066: real time    0.0068
    SETDIJ:  cpu time    0.0021: real time    0.0021
    EDDIAG:  cpu time    0.0013: real time    0.0013
  RMM-DIIS:  cpu time    0.0021: real time    0.0021
    ORTHCH:  cpu time    0.0002: real time    0.0002
       DOS:  cpu time    0.0001: real time    0.0001
    CHARGE:  cpu time    0.0022: real time    0.0023
    MIXING:  cpu time    0.0002: real time    0.0002
    --------------------------------------------
      LOOP:  cpu time    0.0146: real time    0.0150

 eigenvalue-minimisations  :    48
 total energy-change (2. order) :-0.2773835E-01  (-0.1094178E-01)
 number of electron      11.0000001 magnetization       1.0354306
 augmentation part        0.7540850 magnetization       0.2202583

 Broyden mixing:
  rms(total) = 0.15723E+00    rms(broyden)= 0.15718E+00
  rms(prec ) = 0.26430E+00
  weight for this iteration     100.00

 eigenvalues of (default mixing * dielectric matrix)
  average eigenvalue GAMMA=   1.1168
  1.5081  0.7255

 Free energy of the ion-electron system (eV)
  ---------------------------------------------------
  alpha Z        PSCENC =        20.47869267
  Ewald energy   TEWEN  =      -397.32884096
  -Hartree energ DENC   =      -269.54244800
  -exchange      EXHF   =         0.00000000
  -V(xc)+E(xc)   XCENC  =        47.97860473
  PAW double counting   =       411.65189983     -414.94616771
  entropy T*S    EENTRO =        -0.00000000
  eigenvalues    EBANDS =      -106.85907051
  atomic energy  EATOM  =       696.90028792
  Solvation  Ediel_sol  =         0.00000000
  ---------------------------------------------------
  free energy    TOTEN  =       -11.66704204 eV

  energy without entropy =      -11.66704204  energy(sigma->0) =      -11.66704204


--------------------------------------------------------------------------------------------------------




--------------------------------------- Iteration      1(   8)  ---------------------------------------


    POTLOK:  cpu time    0.0064: real time    0.0066
    SETDIJ:  cpu time    0.0021: real time    0.0021
    EDDIAG:  cpu time    0.0013: real time    0.0013
  RMM-DIIS:  cpu time    0.0021: real time    0.0021
    ORTHCH:  cpu time    0.0002: real time    0.0002
       DOS:  cpu time    0.0001: real time    0.0001
    CHARGE:  cpu time    0.0022: real time    0.0022
    MIXING:  cpu time    0.0002: real time    0.0002
    --------------------------------------------
      LOOP:  cpu time    0.0145: real time    0.0147

 eigenvalue-minimisations  :    48
 total energy-change (2. order) : 0.2019347E-01  (-0.3824284E-02)
 number of electron      11.0000001 magnetization       1.0031801
 augmentation part        0.7430901 magnetization       0.1878667

 Broyden mixing:
  rms(total) = 0.55053E-01    rms(broyden)= 0.55024E-01
  rms(prec ) = 0.85230E-01
  weight for this iteration     100.00

 eigenvalues of (default mixing * dielectric matrix)
  average eigenvalue GAMMA=   1.1660
  2.0446  0.7993  0.6541

 Free energy of the ion-electron system (eV)
  ---------------------------------------------------
  alpha Z        PSCENC =        20.47869267
  Ewald energy   TEWEN  =      -397.32884096
  -Hartree energ DENC   =      -271.04798899
  -exchange      EXHF   =         0.00000000
  -V(xc)+E(xc)   XCENC  =        48.14290808
  PAW double counting   =       434.68691261     -437.98509470
  entropy T*S    EENTRO =        -0.00000000
  eigenvalues    EBANDS =      -105.49372520
  atomic energy  EATOM  =       696.90028792
  Solvation  Ediel_sol  =         0.00000000
  ---------------------------------------------------
  free energy    TOTEN  =       -11.64684857 eV

  energy without entropy =      -11.64684857  energy(sigma->0) =      -11.64684857


--------------------------------------------------------------------------------------------------------




--------------------------------------- Iteration      1(   9)  ---------------------------------------


    POTLOK:  cpu time    0.0065: real time    0.0066
    SETDIJ:  cpu time    0.0020: real time    0.0021
    EDDIAG:  cpu time    0.0012: real time    0.0013
  RMM-DIIS:  cpu time    0.0021: real time    0.0021
    ORTHCH:  cpu time    0.0002: real time    0.0002
       DOS:  cpu time    0.0001: real time    0.0001
    CHARGE:  cpu time    0.0022: real time    0.0022
    MIXING:  cpu time    0.0002: real time    0.0002
    --------------------------------------------
      LOOP:  cpu time    0.0144: real time    0.0146

 eigenvalue-minimisations  :    48
 total energy-change (2. order) :-0.3832110E-03  (-0.3011050E-03)
 number of electron      11.0000001 magnetization       0.9939384
 augmentation part        0.7444136 magnetization       0.1775780

 Broyden mixing:
  rms(total) = 0.20789E-01    rms(broyden)= 0.20782E-01
  rms(prec ) = 0.31896E-01
  weight for this iteration     100.00

 eigenvalues of (default mixing * dielectric matrix)
  average eigenvalue GAMMA=   1.1478
  2.2275  0.9957  0.7480  0.6199

 Free energy of the ion-electron system (eV)
  ---------------------------------------------------
  alpha Z        PSCENC =        20.47869267
  Ewald energy   TEWEN  =      -397.32884096
  -Hartree energ DENC   =      -271.01419957
  -exchange      EXHF   =         0.00000000
  -V(xc)+E(xc)   XCENC  =        48.15377227
  PAW double counting   =       440.30692514     -443.59329159
  entropy T*S    EENTRO =        -0.00000000
  eigenvalues    EBANDS =      -105.55057765
  atomic energy  EATOM  =       696.90028792
  Solvation  Ediel_sol  =         0.00000000
  ---------------------------------------------------
  free energy    TOTEN  =       -11.64723178 eV

  energy without entropy =      -11.64723178  energy(sigma->0) =      -11.64723178


--------------------------------------------------------------------------------------------------------




--------------------------------------- Iteration      1(  10)  ---------------------------------------


    POTLOK:  cpu time    0.0064: real time    0.0066
    SETDIJ:  cpu time    0.0021: real time    0.0021
    EDDIAG:  cpu time    0.0013: real time    0.0013
  RMM-DIIS:  cpu time    0.0021: real time    0.0021
    ORTHCH:  cpu time    0.0002: real time    0.0002
       DOS:  cpu time    0.0001: real time    0.0001
    --------------------------------------------
      LOOP:  cpu time    0.0120: real time    0.0122

 eigenvalue-minimisations  :    48
 total energy-change (2. order) :-0.6703875E-04  (-0.7197874E-04)
 number of electron      11.0000001 magnetization       0.9939384
 augmentation part        0.7444136 magnetization       0.1775780

 Free energy of the ion-electron system (eV)
  ---------------------------------------------------
  alpha Z        PSCENC =        20.47869267
  Ewald energy   TEWEN  =      -397.32884096
  -Hartree energ DENC   =      -270.86106263
  -exchange      EXHF   =         0.00000000
  -V(xc)+E(xc)   XCENC  =        48.14342942
  PAW double counting   =       442.65607408     -445.93122132
  entropy T*S    EENTRO =        -0.00000000
  eigenvalues    EBANDS =      -105.70465799
  atomic energy  EATOM  =       696.90028792
  Solvation  Ediel_sol  =         0.00000000
  ---------------------------------------------------
  free energy    TOTEN  =       -11.64729882 eV

  energy without entropy =      -11.64729882  energy(sigma->0) =      -11.64729882


--------------------------------------------------------------------------------------------------------




 average (electrostatic) potential at core
  the test charge radii are     0.7089  0.7215
  (the norm of the test charge is              1.0000)
       1 -70.6545       2 -77.5628
 
 
 
 E-fermi :   1.8567     XC(G=0):  -8.9555     alpha+bet : -6.7415


 spin component 1

 k-point     1 :       0.2500    0.2500    0.0000
  band No.  band energies     occupation 
      1     -25.1054      1.00000
      2     -11.0999      1.00000
      3      -7.6509      1.00000
      4      -6.6267      1.00000
      5      -4.7167      1.00000
      6       1.3081      1.00000
      7       2.3668      0.00000
      8      10.8323      0.00000
      9      14.1840      0.00000
     10      15.9283      0.00000
     11      19.0806      0.00000
     12      19.8356      0.00000

 spin component 2

 k-point     1 :       0.2500    0.2500    0.0000
  band No.  band energies     occupation 
      1     -24.6270      1.00000
      2     -10.3002      1.00000
      3      -7.3120      1.00000
      4      -5.3108      1.00000
      5      -4.2633      1.00000
      6       2.8630      0.00000
      7       3.2885      0.00000
      8      11.3245      0.00000
      9      14.5332      0.00000
     10      16.3666      0.00000
     11      19.3375      0.00000
     12      20.6108      0.00000


--------------------------------------------------------------------------------------------------------


 soft charge-density along one line, spin component           1
         0         1         2         3         4         5         6         7         8         9
 total charge-density along one line
 
 soft charge-density along one line, spin component           2
         0         1         2         3         4         5         6         7         8         9
 total charge-density along one line
 
 pseudopotential strength for first ion, spin component:           1
 13.669   0.063   0.000   0.010  -0.000   0.000   0.021  -0.000
  0.063   0.005   0.000   0.001  -0.000   0.000   0.000   0.000
  0.000   0.000  -7.059   0.000  -0.000  -0.067   0.000  -0.000
  0.010   0.001   0.000  -7.028  -0.000   0.000  -0.054  -0.000
 -0.000  -0.000  -0.000  -0.000  -7.013  -0.000  -0.000  -0.047
  0.000   0.000  -0.067   0.000  -0.000   0.887   0.000  -0.000
  0.021   0.000   0.000  -0.054  -0.000   0.000   0.891  -0.000
 -0.000   0.000  -0.000  -0.000  -0.047  -0.000  -0.000   0.890
 pseudopotential strength for first ion, spin component:           2
 13.397   0.052   0.000   0.013   0.000   0.000   0.021   0.000
  0.052   0.004   0.000   0.001  -0.000   0.000   0.000   0.000
  0.000   0.000  -6.737   0.000  -0.000   0.016   0.000  -0.000
  0.013   0.001   0.000  -6.985  -0.000   0.000  -0.049  -0.000
  0.000  -0.000  -0.000  -0.000  -6.958  -0.000  -0.000  -0.038
  0.000   0.000   0.016   0.000  -0.000   0.902   0.000  -0.000
  0.021   0.000   0.000  -0.049  -0.000   0.000   0.894  -0.000
  0.000   0.000  -0.000  -0.000  -0.038  -0.000  -0.000   0.893
 total augmentation occupancy for first ion, spin component:           1
  1.880  -0.286   0.000   0.168   0.000   0.000   0.091   0.000
 -0.286   0.747   0.000   0.670   0.000   0.000  -0.333   0.000
  0.000   0.000   1.437   0.000   0.000  -0.074   0.000   0.000
  0.168   0.670   0.000   1.336   0.000   0.000  -0.378   0.000
  0.000   0.000   0.000   0.000   0.805   0.000   0.000  -0.161
  0.000   0.000  -0.074   0.000   0.000   0.039   0.000   0.000
  0.091  -0.333   0.000  -0.378   0.000   0.000   0.174   0.000
  0.000   0.000   0.000   0.000  -0.161   0.000   0.000   0.039
 total augmentation occupancy for first ion, spin component:           2
  0.027   0.046   0.000   0.002   0.000   0.000  -0.003   0.000
  0.046  -0.008   0.000   0.002   0.000   0.000   0.003   0.000
  0.000   0.000   0.743   0.000   0.000   0.082   0.000   0.000
  0.002   0.002   0.000   0.004   0.000   0.000  -0.000   0.000
  0.000   0.000   0.000   0.000   0.016   0.000   0.000   0.000
  0.000   0.000   0.082   0.000   0.000   0.004   0.000   0.000
 -0.003   0.003   0.000  -0.000   0.000   0.000  -0.000   0.000
  0.000   0.000   0.000   0.000   0.000   0.000   0.000  -0.001


------------------------ aborting loop because EDIFF is reached ----------------------------------------


 


 total charge     
 
# of ion       s       p       d       tot
------------------------------------------
    1        1.336   2.299   0.000   3.635
    2        1.629   3.426   0.000   5.055
--------------------------------------------------
tot          2.965   5.725   0.000   8.690
 


 magnetization (x)
 
# of ion       s       p       d       tot
------------------------------------------
    1        0.014   0.447   0.000   0.461
    2        0.003   0.289   0.000   0.292
--------------------------------------------------
tot          0.017   0.736   0.000   0.753
 
    CHARGE:  cpu time    0.0024: real time    0.0024
    FORLOC:  cpu time    0.0002: real time    0.0003
    FORNL :  cpu time    0.0049: real time    0.0049
    STRESS:  cpu time    0.0150: real time    0.0154
    FORHAR:  cpu time    0.0008: real time    0.0008
    MIXING:  cpu time    0.0002: real time    0.0002
    OFIELD:  cpu time    0.0000: real time    0.0000

  FORCE on cell =-STRESS in cart. coord.  units (eV):
  Direction    XX          YY          ZZ          XY          YZ          ZX
  --------------------------------------------------------------------------------------
  Alpha Z    20.47869    20.47869    20.47869
  Ewald     -16.14170  -314.19436   -66.99295    -0.00000     0.00000    -0.00000
  Hartree   185.46434    19.99938    65.38855    -0.00000    -0.00000    -0.00000
  E(xc)     -50.45855   -51.19622   -49.97167     0.00000    -0.00000     0.00000
  Local    -335.87250   101.64204  -145.23945    -0.00000    -0.00000    -0.00000
  n-local   -26.73507   -33.72222   -36.64624     0.13285    -0.00000    -0.00000
  augment     6.25263     8.11658     6.09145     0.00000     0.00000    -0.00000
  Kinetic   224.25265   249.24582   204.28204    -3.10018     0.00000     0.00000
  Fock        0.00000     0.00000     0.00000     0.00000     0.00000     0.00000
  -------------------------------------------------------------------------------------
  Total       7.24050     0.36970    -2.60958     0.00000     0.00000     0.00000
  in kB     483.35680    24.68032  -174.20900     0.00000     0.00000     0.00000
  external pressure =      111.28 kB  Pullay stress =        0.00 kB


 VOLUME and BASIS-vectors are now :
 -----------------------------------------------------------------------------
  energy-cutoff  :      600.00
  volume of cell :       24.00
      direct lattice vectors                 reciprocal lattice vectors
     2.000000000  0.000000000  0.000000000     0.500000000  0.000000000  0.000000000
     0.000000000  3.000000000  0.000000000     0.000000000  0.333333333  0.000000000
     0.000000000  0.000000000  4.000000000     0.000000000  0.000000000  0.250000000

  length of vectors
     2.000000000  3.000000000  4.000000000     0.500000000  0.333333333  0.250000000


 FORCES acting on ions
    electron-ion (+dipol)            ewald-force                    non-local-force                 convergence-correction
 -----------------------------------------------------------------------------------------------
   0.240E-13 0.111E-12 -.273E+03   -.187E-14 -.487E-15 0.311E+03   0.000E+00 0.000E+00 -.380E+02   -.762E-15 -.350E-14 0.591E-01
   0.624E-13 0.103E-12 0.254E+03   0.182E-14 0.641E-15 -.311E+03   0.000E+00 0.000E+00 0.567E+02   -.267E-14 0.639E-14 -.687E-01
 -----------------------------------------------------------------------------------------------
   0.864E-13 0.214E-12 -.186E+02   -.463E-16 0.153E-15 0.000E+00   0.000E+00 0.000E+00 0.187E+02   -.343E-14 0.289E-14 -.966E-02
 
 
 POSITION                                       TOTAL-FORCE (eV/Angst)
 -----------------------------------------------------------------------------------
      1.00000      1.50000      2.23868         0.000000      0.000000      0.006379
      1.00000      1.50000      1.05082         0.000000      0.000000     -0.006379
 -----------------------------------------------------------------------------------
    total drift:                                0.000000      0.000000      0.007067


--------------------------------------------------------------------------------------------------------



  FREE ENERGIE OF THE ION-ELECTRON SYSTEM (eV)
  ---------------------------------------------------
  free  energy   TOTEN  =       -11.64729882 eV

  energy  without entropy=      -11.64729882  energy(sigma->0) =      -11.64729882
 


--------------------------------------------------------------------------------------------------------


    POTLOK:  cpu time    0.0088: real time    0.0088


--------------------------------------------------------------------------------------------------------


     LOOP+:  cpu time    0.1679: real time    0.6791
    4ORBIT:  cpu time    0.0000: real time    0.0000
 


 total charge     
 
# of ion       s       p       d       tot
------------------------------------------
    1        1.336   2.299   0.000   3.635
    2        1.629   3.426   0.000   5.055
--------------------------------------------------
tot          2.965   5.725   0.000   8.690
 


 magnetization (x)
 
# of ion       s       p       d       tot
------------------------------------------
    1        0.014   0.447   0.000   0.461
    2        0.003   0.289   0.000   0.292
--------------------------------------------------
tot          0.017   0.736   0.000   0.753
 

 total amount of memory used by VASP MPI-rank0    32917. kBytes
=======================================================================

   base      :      30000. kBytes
   nonlr-proj:        764. kBytes
   fftplans  :        364. kBytes
   grid      :       1751. kBytes
   one-center:         12. kBytes
   wavefun   :         26. kBytes
 
  
  
 General timing and accounting informations for this job:
 ========================================================
  
                  Total CPU time used (sec):        0.545
                            User time (sec):        0.384
                          System time (sec):        0.161
                         Elapsed time (sec):        1.760
  
                   Maximum memory used (kb):      284924.
                   Average memory used (kb):           0.
  
                          Minor page faults:        12040
                          Major page faults:           20
                 Voluntary context switches:         3853
