PROCAR new format
# of k-points:    1         # of bands:   12         # of ions:    2

 k-point     1 :    0.25000000 0.25000000 0.00000000     weight = 1.00000000

band     1 # energy  -25.10536540 # occ.  1.00000000
 
ion      s      p      d    tot
    1  0.249  0.119  0.000  0.368
    2  0.523  0.108  0.000  0.631
tot    0.772  0.227  0.000  0.998
 
band     2 # energy  -11.09986169 # occ.  1.00000000
 
ion      s      p      d    tot
    1  0.332  0.025  0.000  0.357
    2  0.267  0.154  0.000  0.421
tot    0.599  0.180  0.000  0.778
 
band     3 # energy   -7.65086170 # occ.  1.00000000
 
ion      s      p      d    tot
    1  0.010  0.323  0.000  0.333
    2  0.000  0.399  0.000  0.400
tot    0.010  0.722  0.000  0.733
 
band     4 # energy   -6.62666363 # occ.  1.00000000
 
ion      s      p      d    tot
    1  0.001  0.271  0.000  0.272
    2  0.000  0.445  0.000  0.445
tot    0.001  0.717  0.000  0.718
 
band     5 # energy   -4.71669793 # occ.  1.00000000
 
ion      s      p      d    tot
    1  0.081  0.238  0.000  0.319
    2  0.026  0.427  0.000  0.454
tot    0.107  0.666  0.000  0.773
 
band     6 # energy    1.30809912 # occ.  1.00000000
 
ion      s      p      d    tot
    1  0.002  0.397  0.000  0.398
    2  0.000  0.323  0.000  0.323
tot    0.002  0.719  0.000  0.721
 
band     7 # energy    2.36675944 # occ.  0.00000000
 
ion      s      p      d    tot
    1  0.033  0.458  0.000  0.491
    2  0.009  0.283  0.000  0.293
tot    0.042  0.741  0.000  0.783
 
band     8 # energy   10.83229706 # occ.  0.00000000
 
ion      s      p      d    tot
    1  0.023  0.080  0.000  0.103
    2  0.019  0.047  0.000  0.066
tot    0.042  0.127  0.000  0.169
 
band     9 # energy   14.18402998 # occ.  0.00000000
 
ion      s      p      d    tot
    1  0.025  0.048  0.000  0.073
    2  0.017  0.202  0.000  0.220
tot    0.042  0.250  0.000  0.293
 
band    10 # energy   15.92833696 # occ.  0.00000000
 
ion      s      p      d    tot
    1  0.038  0.327  0.000  0.365
    2  0.045  0.111  0.000  0.157
tot    0.083  0.439  0.000  0.522
 
band    11 # energy   19.08064939 # occ.  0.00000000
 
ion      s      p      d    tot
    1  0.002  0.021  0.000  0.023
    2  0.028  0.039  0.000  0.067
tot    0.030  0.060  0.000  0.090
 
band    12 # energy   19.83564941 # occ.  0.00000000
 
ion      s      p      d    tot
    1  0.030  0.064  0.000  0.094
    2  0.003  0.037  0.000  0.040
tot    0.033  0.101  0.000  0.134
 
# of k-points:    1         # of bands:   12         # of ions:    2

 k-point     1 :    0.25000000 0.25000000 0.00000000     weight = 1.00000000

band     1 # energy  -24.62699920 # occ.  1.00000000
 
ion      s      p      d    tot
    1  0.242  0.123  0.000  0.365
    2  0.523  0.113  0.000  0.636
tot    0.765  0.236  0.000  1.001
 
band     2 # energy  -10.30018660 # occ.  1.00000000
 
ion      s      p      d    tot
    1  0.313  0.022  0.000  0.335
    2  0.265  0.181  0.000  0.446
tot    0.578  0.203  0.000  0.781
 
band     3 # energy   -7.31199472 # occ.  1.00000000
 
ion      s      p      d    tot
    1  0.014  0.326  0.000  0.340
    2  0.000  0.388  0.000  0.388
tot    0.015  0.714  0.000  0.728
 
band     4 # energy   -5.31082204 # occ.  1.00000000
 
ion      s      p      d    tot
    1  0.000  0.228  0.000  0.228
    2  0.000  0.464  0.000  0.465
tot    0.000  0.693  0.000  0.693
 
band     5 # energy   -4.26330420 # occ.  1.00000000
 
ion      s      p      d    tot
    1  0.091  0.227  0.000  0.319
    2  0.025  0.421  0.000  0.447
tot    0.117  0.649  0.000  0.765
 
band     6 # energy    2.86302817 # occ.  0.00000000
 
ion      s      p      d    tot
    1  0.038  0.465  0.000  0.502
    2  0.009  0.270  0.000  0.280
tot    0.047  0.735  0.000  0.782
 
band     7 # energy    3.28848853 # occ.  0.00000000
 
ion      s      p      d    tot
    1  0.001  0.400  0.000  0.401
    2  0.000  0.290  0.000  0.290
tot    0.002  0.690  0.000  0.692
 
band     8 # energy   11.32447830 # occ.  0.00000000
 
ion      s      p      d    tot
    1  0.023  0.082  0.000  0.105
    2  0.020  0.050  0.000  0.070
tot    0.043  0.132  0.000  0.175
 
band     9 # energy   14.53322077 # occ.  0.00000000
 
ion      s      p      d    tot
    1  0.020  0.034  0.000  0.054
    2  0.013  0.169  0.000  0.182
tot    0.033  0.203  0.000  0.236
 
band    10 # energy   16.36655100 # occ.  0.00000000
 
ion      s      p      d    tot
    1  0.047  0.342  0.000  0.389
    2  0.051  0.145  0.000  0.196
tot    0.098  0.487  0.000  0.585
 
band    11 # energy   19.33745512 # occ.  0.00000000
 
ion      s      p      d    tot
    1  0.007  0.016  0.000  0.023
    2  0.022  0.027  0.000  0.049
tot    0.028  0.043  0.000  0.072
 
band    12 # energy   20.61083532 # occ.  0.00000000
 
ion      s      p      d    tot
    1  0.027  0.078  0.000  0.105
    2  0.009  0.049  0.000  0.058
tot    0.036  0.127  0.000  0.163
 
