<preamble>

<basis_specs>
===============================================================================
H                    Z=   1    Mass=  1.0080        Charge= 0.17977+309
Lmxo=1 Lmxkb= 1    BasisType=split      Semic=F
L=0  Nsemic=0  Cnfigmx=1
          i=1  nzeta=1  polorb=1  (1s)  (to be polarized perturbatively)
            splnorm:   0.15000    
               vcte:    40.000    
               rinn:    4.7855    
               qcoe:    0.0000    
               qyuk:    0.0000    
               qwid:   0.10000E-01
                rcs:    5.3172    
            lambdas:    1.0000    
L=1  Nsemic=0  Cnfigmx=2
          i=1  nzeta=0  polorb=0  (2p)  (perturbative polarization orbital) (from 1s)
-------------------------------------------------------------------------------
L=0  Nkbl=1  erefs: 0.17977+309
L=1  Nkbl=1  erefs: 0.17977+309
===============================================================================
</basis_specs>

<pseudopotential_header>
 H  pb nrl nc  
 ONCVPSP-3.2017-10-31Hamann's oncvpsp                        
 1s 1.00  r= 1.01/2p 0.00  r= 0.71/                                     1s:
</pseudopotential_header>
</preamble>
H                             # Symbol
H                             # Label
    1                         # Atomic number
     1.00000000000                             # Valence charge
     1.00800000000        # Mass 
     2.27454303330        # Self energy 
   1   2                      # Lmax for basis, no. of nl orbitals 
   1   3                      # Lmax for projectors, no. of nl KB projectors
# PAOs:__________________________
  0  1  1  0  1.000000   #orbital l, n, z, is_polarized, population
 500    0.1065575457643037E-01     5.317221533638754     # npts, delta, cutoff
     0.000000000000000         1.547567689011583    
    0.1065575457643037E-01     1.547326418494296    
    0.2131150915286074E-01     1.546610917624392    
    0.3196726372929111E-01     1.545420364622012    
    0.4262301830572148E-01     1.543757659269172    
    0.5327877288215185E-01     1.541626822779043    
    0.6393452745858222E-01     1.539032959348474    
    0.7459028203501260E-01     1.535982208779909    
    0.8524603661144296E-01     1.532481690951757    
    0.9590179118787333E-01     1.528539443313591    
    0.1065575457643037         1.524164352687761    
    0.1172133003407341         1.519366082694796    
    0.1278690549171644         1.514154998110689    
    0.1385248094935948         1.508542087419727    
    0.1491805640700252         1.502538884755835    
    0.1598363186464556         1.496157392336166    
    0.1704920732228859         1.489410004390029    
    0.1811478277993163         1.482309433479678    
    0.1918035823757467         1.474868640000749    
    0.2024593369521770         1.467100765542426    
    0.2131150915286074         1.459019070681581    
    0.2237708461050378         1.450636877682196    
    0.2344266006814681         1.441967518471210    
    0.2450823552578985         1.433024288164074    
    0.2557381098343289         1.423820404317858    
    0.2663938644107592         1.414368971996125    
    0.2770496189871896         1.404682954638247    
    0.2877053735636200         1.394775150636777    
    0.2983611281400504         1.384658175440236    
    0.3090168827164808         1.374344448916435    
    0.3196726372929111         1.363846187633981    
    0.3303283918693415         1.353175401648276    
    0.3409841464457719         1.342343895314167    
    0.3516399010222022         1.331363271591835    
    0.3622956555986326         1.320244939266385    
    0.3729514101750629         1.309000122466148    
    0.3836071647514933         1.297639871840501    
    0.3942629193279237         1.286175076745859    
    0.4049186739043541         1.274616477788462    
    0.4155744284807845         1.262974679085095    
    0.4262301830572148         1.251260159627496    
    0.4368859376336452         1.239483283172728    
    0.4475416922100756         1.227654306129476    
    0.4581974467865059         1.215783382968281    
    0.4688532013629363         1.203880568751069    
    0.4795089559393667         1.191955818450681    
    0.4901647105157970         1.180018982813218    
    0.5008204650922274         1.168079800603112    
    0.5114762196686578         1.156147887161592    
    0.5221319742450882         1.144232719295336    
    0.5327877288215185         1.132343619387374    
    0.5434434833979489         1.120489725129146    
    0.5540992379743792         1.108679972667295    
    0.5647549925508096         1.096923066304750    
    0.5754107471272401         1.085227448465675    
    0.5860665017036704         1.073601268045958    
    0.5967222562801008         1.062052347626946    
    0.6073780108565311         1.050588150168596    
    0.6180337654329615         1.039215745830231    
    0.6286895200093918         1.027941779585917    
    0.6393452745858222         1.016772440306321    
    0.6500010291622526         1.005713431969678    
    0.6606567837386830        0.9947699476410613    
    0.6713125383151133        0.9839466468219575    
    0.6819682928915437        0.9732476367218426    
    0.6926240474679741        0.9626764579409475    
    0.7032798020444044        0.9522360749800582    
    0.7139355566208349        0.9419288719104266    
    0.7245913111972652        0.9317566534465541    
    0.7352470657736956        0.9217206515686232    
    0.7459028203501259        0.9118215377417429    
    0.7565585749265563        0.9020594406778146    
    0.7672143295029866        0.8924339694851149    
    0.7778700840794170        0.8829442419527307    
    0.7885258386558474        0.8735889176236931    
    0.7991815932322778        0.8643662352238821    
    0.8098373478087082        0.8552740539352244    
    0.8204931023851385        0.8463098979327791    
    0.8311488569615689        0.8374710035472868    
    0.8418046115379992        0.8287543683685864    
    0.8524603661144297        0.8201568015716867    
    0.8631161206908600        0.8116749747267556    
    0.8737718752672904        0.8033054723469412    
    0.8844276298437207        0.7950448414338647    
    0.8950833844201511        0.7868896392994205    
    0.9057391389965814        0.7788364789737841    
    0.9163948935730118        0.7708820715524710    
    0.9270506481494423        0.7630232648890293    
    0.9377064027258726        0.7552570781034277    
    0.9483621573023030        0.7475807314481253    
    0.9590179118787333        0.7399916711529205    
    0.9696736664551637        0.7324875889540090    
    0.9803294210315940        0.7250664361298748    
    0.9909851756080245        0.7177264318994683    
     1.001640930184455        0.7104660648239942    
     1.012296684760885        0.7032840970526334    
     1.022952439337316        0.6961795152499868    
     1.033608193913746        0.6891514060274118    
     1.044263948490176        0.6821988700791345    
     1.054919703066607        0.6753210179592954    
     1.065575457643037        0.6685169718356277    
     1.076231212219467        0.6617858643514684    
     1.086886966795898        0.6551268389370987    
     1.097542721372328        0.6485390495745228    
     1.108198475948758        0.6420216607082739    
     1.118854230525189        0.6355738471319285    
     1.129509985101619        0.6291947938728966    
     1.140165739678050        0.6228836960788808    
     1.150821494254480        0.6166397589042104    
     1.161477248830910        0.6104621973964409    
     1.172133003407341        0.6043502363832532    
     1.182788757983771        0.5983031103597155    
     1.193444512560202        0.5923200633759491    
     1.204100267136632        0.5864003489252593    
     1.214756021713062        0.5805432298327687    
     1.225411776289492        0.5747479781446034    
     1.236067530865923        0.5690138750176668    
     1.246723285442353        0.5633402106100459    
     1.257379040018784        0.5577262839720767    
     1.268034794595214        0.5521714029381132    
     1.278690549171644        0.5466748840190211    
     1.289346303748075        0.5412360522954303    
     1.300002058324505        0.5358542413117706    
     1.310657812900936        0.5305287929711171    
     1.321313567477366        0.5252590574308673    
     1.331969322053796        0.5200443929992667    
     1.342625076630227        0.5148841660328133    
     1.353280831206657        0.5097777508345420    
     1.363936585783087        0.5047245295532226    
     1.374592340359518        0.4997238920834701    
     1.385248094935948        0.4947752359667937    
     1.395903849512379        0.4898779662935848    
     1.406559604088809        0.4850314956060630    
     1.417215358665239        0.4802352438021844    
     1.427871113241670        0.4754886380405224    
     1.438526867818100        0.4707911126461273    
     1.449182622394530        0.4661421090173695    
     1.459838376970961        0.4615410755337745    
     1.470494131547391        0.4569874674648481    
     1.481149886123821        0.4524807468799024    
     1.491805640700252        0.4480203825588771    
     1.502461395276682        0.4436058499041615    
     1.513117149853113        0.4392366308534205    
     1.523772904429543        0.4349122137934175    
     1.534428659005973        0.4306320934748390    
     1.545084413582404        0.4263957709281198    
     1.555740168158834        0.4222027533802624    
     1.566395922735264        0.4180525541726517    
     1.577051677311695        0.4139446926798613    
     1.587707431888125        0.4098786942294484    
     1.598363186464556        0.4058540900227309    
     1.609018941040986        0.4018704170565434    
     1.619674695617416        0.3979272180459715    
     1.630330450193847        0.3940240413480504    
     1.640986204770277        0.3901604408864291    
     1.651641959346707        0.3863359760769950    
     1.662297713923138        0.3825502117544447    
     1.672953468499568        0.3788027180998044    
     1.683609223075998        0.3750930705688851    
     1.694264977652429        0.3714208498216708    
     1.704920732228859        0.3677856416526291    
     1.715576486805290        0.3641870369219394    
     1.726232241381720        0.3606246314876276    
     1.736887995958150        0.3570980261386032    
     1.747543750534581        0.3536068265285875    
     1.758199505111011        0.3501506431109266    
     1.768855259687441        0.3467290910742812    
     1.779511014263872        0.3433417902791821    
     1.790166768840302        0.3399883651954458    
     1.800822523416733        0.3366684448404393    
     1.811478277993163        0.3333816627181887    
     1.822134032569593        0.3301276567593161    
     1.832789787146024        0.3269060692618047    
     1.843445541722454        0.3237165468325751    
     1.854101296298885        0.3205587403298703    
     1.864757050875315        0.3174323048064339    
     1.875412805451745        0.3143368994534792    
     1.886068560028175        0.3112721875454344    
     1.896724314604606        0.3082378363854583    
     1.907380069181036        0.3052335172517151    
     1.918035823757467        0.3022589053444026    
     1.928691578333897        0.2993136797335195    
     1.939347332910327        0.2963975233073674    
     1.950003087486758        0.2935101227217768    
     1.960658842063188        0.2906511683500460    
     1.971314596639619        0.2878203542335874    
     1.981970351216049        0.2850173780332709    
     1.992626105792479        0.2822419409814522    
     2.003281860368910        0.2794937478346841    
     2.013937614945340        0.2767725068270949    
     2.024593369521770        0.2740779296244265    
     2.035249124098201        0.2714097312787311    
     2.045904878674631        0.2687676301837044    
     2.056560633251062        0.2661513480306569    
     2.067216387827492        0.2635606097651137    
     2.077872142403922        0.2609951435440288    
     2.088527896980353        0.2584546806936093    
     2.099183651556783        0.2559389556677434    
     2.109839406133213        0.2534477060070177    
     2.120495160709644        0.2509806722983208    
     2.131150915286074        0.2485375981350237    
     2.141806669862504        0.2461182300777257    
     2.152462424438935        0.2437223176155640    
     2.163118179015365        0.2413496131280735    
     2.173773933591796        0.2389998718475903    
     2.184429688168226        0.2366728518221939    
     2.195085442744656        0.2343683138791768    
     2.205741197321087        0.2320860215890355    
     2.216396951897517        0.2298257412299758    
     2.227052706473947        0.2275872417529233    
     2.237708461050378        0.2253702947470344    
     2.248364215626808        0.2231746744056982    
     2.259019970203239        0.2210001574930218    
     2.269675724779669        0.2188465233107945    
     2.280331479356099        0.2167135536659216    
     2.290987233932530        0.2146010328383214    
     2.301642988508960        0.2125087475492796    
     2.312298743085390        0.2104364869302520    
     2.322954497661821        0.2083840424921114    
     2.333610252238251        0.2063512080948312    
     2.344266006814681        0.2043377799175979    
     2.354921761391112        0.2023435564293474    
     2.365577515967542        0.2003683383597199    
     2.376233270543973        0.1984119286704238    
     2.386889025120403        0.1964741325270051    
     2.397544779696833        0.1945547572710166    
     2.408200534273264        0.1926536123925784    
     2.418856288849694        0.1907705095033249    
     2.429512043426124        0.1889052623097353    
     2.440167798002555        0.1870576865868357    
     2.450823552578985        0.1852276001522736    
     2.461479307155416        0.1834148228407547    
     2.472135061731846        0.1816191764788396    
     2.482790816308276        0.1798404848600910    
     2.493446570884707        0.1780785737205716    
     2.504102325461137        0.1763332707146823    
     2.514758080037567        0.1746044053913375    
     2.525413834613998        0.1728918091704745    
     2.536069589190428        0.1711953153198865    
     2.546725343766858        0.1695147589323817    
     2.557381098343289        0.1678499769032553    
     2.568036852919719        0.1662008079080772    
     2.578692607496150        0.1645670923807856    
     2.589348362072580        0.1629486724920835    
     2.600004116649010        0.1613453921281342    
     2.610659871225441        0.1597570968695492    
     2.621315625801871        0.1581836339706675    
     2.631971380378301        0.1566248523391170    
     2.642627134954732        0.1550806025156591    
     2.653282889531162        0.1535507366543073    
     2.663938644107593        0.1520351085027200    
     2.674594398684023        0.1505335733828586    
     2.685250153260453        0.1490459881719129    
     2.695905907836884        0.1475722112834823    
     2.706561662413314        0.1461121026490169    
     2.717217416989744        0.1446655236995073    
     2.727873171566175        0.1432323373474248    
     2.738528926142605        0.1418124079689054    
     2.749184680719035        0.1404056013861734    
     2.759840435295466        0.1390117848502047    
     2.770496189871896        0.1376308270236203    
     2.781151944448327        0.1362625979638134    
     2.791807699024757        0.1349069691062994    
     2.802463453601187        0.1335638132482920    
     2.813119208177618        0.1322330045324969    
     2.823774962754048        0.1309144184311238    
     2.834430717330478        0.1296079317301096    
     2.845086471906909        0.1283134225135535    
     2.855742226483339        0.1270307701483576    
     2.866397981059770        0.1257598552690710    
     2.877053735636200        0.1245005597629368    
     2.887709490212631        0.1232527667551336    
     2.898365244789061        0.1220163605942141    
     2.909020999365491        0.1207912268377352    
     2.919676753941921        0.1195772522380746    
     2.930332508518352        0.1183743247284385    
     2.940988263094782        0.1171823334090467    
     2.951644017671212        0.1160011685335034    
     2.962299772247643        0.1148307214953431    
     2.972955526824073        0.1136708848147524    
     2.983611281400504        0.1125215521254650    
     2.994267035976934        0.1113826181618271    
     3.004922790553365        0.1102539787460294    
     3.015578545129795        0.1091355307755042    
     3.026234299706225        0.1080271722105082    
     3.036890054282655        0.1069288020745577    
     3.047545808859086        0.1058403204256431    
     3.058201563435516        0.1047616283387557    
     3.068857318011947        0.1036926279035483    
     3.079513072588377        0.1026332222126541    
     3.090168827164808        0.1015833153501747    
     3.100824581741238        0.1005428123803153    
     3.111480336317668        0.9951161933616309E-01
     3.122136090894099        0.9848964320861014E-01
     3.132791845470529        0.9747679193541610E-01
     3.143447600046959        0.9647297439040819E-01
     3.154103354623389        0.9547810037281981E-01
     3.164759109199820        0.9449208059676151E-01
     3.175414863776250        0.9351482668082707E-01
     3.186070618352681        0.9254625113782694E-01
     3.196726372929111        0.9158626736465347E-01
     3.207382127505542        0.9063478963227169E-01
     3.218037882081972        0.8969173307583531E-01
     3.228693636658402        0.8875701368492592E-01
     3.239349391234833        0.8783054829391433E-01
     3.250005145811263        0.8691225457244155E-01
     3.260660900387693        0.8600205101601736E-01
     3.271316654964123        0.8509985693673620E-01
     3.281972409540554        0.8420559245410687E-01
     3.292628164116985        0.8331917848599701E-01
     3.303283918693415        0.8244053673968726E-01
     3.313939673269845        0.8156958970303654E-01
     3.324595427846276        0.8070626063575574E-01
     3.335251182422706        0.7985047356078800E-01
     3.345906936999136        0.7900215325579527E-01
     3.356562691575567        0.7816122524474722E-01
     3.367218446151997        0.7732761578961446E-01
     3.377874200728427        0.7650125188216149E-01
     3.388529955304858        0.7568206123584016E-01
     3.399185709881288        0.7486997227778103E-01
     3.409841464457719        0.7406491414088176E-01
     3.420497219034149        0.7326681665599098E-01
     3.431152973610579        0.7247561034418654E-01
     3.441808728187010        0.7169122640914655E-01
     3.452464482763440        0.7091359672961237E-01
     3.463120237339870        0.7014265385194157E-01
     3.473775991916301        0.6937833098275041E-01
     3.484431746492731        0.6862056198164472E-01
     3.495087501069162        0.6786928135403576E-01
     3.505743255645592        0.6712442424404393E-01
     3.516399010222022        0.6638592642748500E-01
     3.527054764798453        0.6565372430494087E-01
     3.537710519374883        0.6492775489491168E-01
     3.548366273951313        0.6420795582704897E-01
     3.559022028527744        0.6349426533546873E-01
     3.569677783104174        0.6278662225214426E-01
     3.580333537680604        0.6208496600037459E-01
     3.590989292257035        0.6138923658833181E-01
     3.601645046833465        0.6069937460268289E-01
     3.612300801409896        0.6001532120228616E-01
     3.622956555986326        0.5933701811196208E-01
     3.633612310562756        0.5866440761633559E-01
     3.644268065139187        0.5799743255375174E-01
     3.654923819715617        0.5733603631026003E-01
     3.665579574292047        0.5668016281367009E-01
     3.676235328868478        0.5602975652767567E-01
     3.686891083444908        0.5538476244604676E-01
     3.697546838021339        0.5474512608688787E-01
     3.708202592597769        0.5411079348696385E-01
     3.718858347174199        0.5348171119609008E-01
     3.729514101750630        0.5285782627158708E-01
     3.740169856327060        0.5223908627279891E-01
     3.750825610903490        0.5162543925567424E-01
     3.761481365479921        0.5101683376740974E-01
     3.772137120056351        0.5041321884115318E-01
     3.782792874632781        0.4981454399076842E-01
     3.793448629209212        0.4922075920565926E-01
     3.804104383785642        0.4863181494565166E-01
     3.814760138362073        0.4804766213593431E-01
     3.825415892938503        0.4746825216205647E-01
     3.836071647514933        0.4689353686498193E-01
     3.846727402091364        0.4632346853619873E-01
     3.857383156667794        0.4575799991288457E-01
     3.868038911244224        0.4519708417312520E-01
     3.878694665820655        0.4464067493118775E-01
     3.889350420397085        0.4408872623284589E-01
     3.900006174973516        0.4354119255075815E-01
     3.910661929549946        0.4299802877989684E-01
     3.921317684126376        0.4245919023302849E-01
     3.931973438702807        0.4192463263624448E-01
     3.942629193279237        0.4139431212454069E-01
     3.953284947855667        0.4086818523744699E-01
     3.963940702432098        0.4034620891470423E-01
     3.974596457008528        0.3982834049198951E-01
     3.985252211584958        0.3931453769668810E-01
     3.995907966161389        0.3880475864371235E-01
     4.006563720737820        0.3829896183136611E-01
     4.017219475314250        0.3779710613725468E-01
     4.027875229890680        0.3729915081423935E-01
     4.038530984467110        0.3680505548643637E-01
     4.049186739043541        0.3631478014525941E-01
     4.059842493619971        0.3582828514550517E-01
     4.070498248196402        0.3534553120148132E-01
     4.081154002772831        0.3486647938317673E-01
     4.091809757349262        0.3439109111247313E-01
     4.102465511925693        0.3391932815939750E-01
     4.113121266502123        0.3345115263841529E-01
     4.123777021078554        0.3298652700476299E-01
     4.134432775654984        0.3252541405082104E-01
     4.145088530231414        0.3206777690252467E-01
     4.155744284807844        0.3161357901581396E-01
     4.166400039384275        0.3116278417312162E-01
     4.177055793960705        0.3071535647989821E-01
     4.187711548537136        0.3027126036117454E-01
     4.198367303113566        0.2983046055816067E-01
     4.209023057689996        0.2939292212488078E-01
     4.219678812266427        0.2895861042484431E-01
     4.230334566842857        0.2852749112775165E-01
     4.240990321419288        0.2809953020623520E-01
     4.251646075995718        0.2767469393263433E-01
     4.262301830572148        0.2725294887580519E-01
     4.272957585148578        0.2683426189796255E-01
     4.283613339725009        0.2641860015155635E-01
     4.294269094301439        0.2600593107618041E-01
     4.304924848877870        0.2559622239551269E-01
     4.315580603454300        0.2518944211428883E-01
     4.326236358030730        0.2478555851530622E-01
     4.336892112607161        0.2438454015645978E-01
     4.347547867183591        0.2398635586780812E-01
     4.358203621760022        0.2359097474867050E-01
     4.368859376336452        0.2319836616475358E-01
     4.379515130912882        0.2280849974530790E-01
     4.390170885489312        0.2242134538031331E-01
     4.400826640065743        0.2203687321769462E-01
     4.411482394642174        0.2165505366056385E-01
     4.422138149218604        0.2127585736449258E-01
     4.432793903795034        0.2089925523481139E-01
     4.443449658371464        0.2052521842393657E-01
     4.454105412947895        0.2015371832872492E-01
     4.464761167524325        0.1978472658785481E-01
     4.475416922100756        0.1941821507923409E-01
     4.486072676677186        0.1905415591743437E-01
     4.496728431253616        0.1869252145115062E-01
     4.507384185830047        0.1833328426068784E-01
     4.518039940406477        0.1797641715547113E-01
     4.528695694982908        0.1762189317158269E-01
     4.539351449559338        0.1726968556932222E-01
     4.550007204135768        0.1691976783079243E-01
     4.560662958712198        0.1657211365750836E-01
     4.571318713288629        0.1622669696803088E-01
     4.581974467865059        0.1588349189562359E-01
     4.592630222441490        0.1554247278593281E-01
     4.603285977017920        0.1520361419469102E-01
     4.613941731594350        0.1486689088544299E-01
     4.624597486170781        0.1453227782729377E-01
     4.635253240747211        0.1419975019267988E-01
     4.645908995323642        0.1386928335516139E-01
     4.656564749900072        0.1354085288723682E-01
     4.667220504476502        0.1321443455817810E-01
     4.677876259052932        0.1289000433188831E-01
     4.688532013629363        0.1256753836477861E-01
     4.699187768205793        0.1224701300366748E-01
     4.709843522782224        0.1192840478369933E-01
     4.720499277358654        0.1161169042628353E-01
     4.731155031935084        0.1129684683705379E-01
     4.741810786511515        0.1098385110384621E-01
     4.752466541087945        0.1067268049469865E-01
     4.763122295664376        0.1036331245586716E-01
     4.773778050240806        0.1005572460986324E-01
     4.784433804817236        0.9749894753508981E-02
     4.795089559393666        0.9445800856010841E-02
     4.805745313970097        0.9143421057051820E-02
     4.816401068546527        0.8842733664972777E-02
     4.827056823122958        0.8543717168785287E-02
     4.837712577699389        0.8246350597215960E-02
     4.848368332275818        0.7950616153765902E-02
     4.859024086852249        0.7656507382800819E-02
     4.869679841428679        0.7364043175716529E-02
     4.880335596005110        0.7073283636996760E-02
     4.890991350581540        0.6784343061692308E-02
     4.901647105157970        0.6497397306531598E-02
     4.912302859734401        0.6212685117515286E-02
     4.922958614310831        0.5930504361643492E-02
     4.933614368887262        0.5651204615744387E-02
     4.944270123463692        0.5375177542088798E-02
     4.954925878040123        0.5102846228466028E-02
     4.965581632616552        0.4834654365527063E-02
     4.976237387192983        0.4571055857601945E-02
     4.986893141769413        0.4312505242023780E-02
     4.997548896345844        0.4059449127681929E-02
     5.008204650922274        0.3812318747613104E-02
     5.018860405498704        0.3571523642137438E-02
     5.029516160075135        0.3337446438473298E-02
     5.040171914651565        0.3110438661885642E-02
     5.050827669227996        0.2890817496155823E-02
     5.061483423804426        0.2678863403060678E-02
     5.072139178380857        0.2474818508460205E-02
     5.082794932957286        0.2278885664313243E-02
     5.093450687533717        0.2091228099950035E-02
     5.104106442110147        0.1911969581199453E-02
     5.114762196686578        0.1741195001785626E-02
     5.125417951263008        0.1578951337299831E-02
     5.136073705839438        0.1425248897654548E-02
     5.146729460415869        0.1280062818972066E-02
     5.157385214992299        0.1143334740061700E-02
     5.168040969568730        0.1014974611670094E-02
     5.178696724145160        0.8948625880367798E-03
     5.189352478721591        0.7828509491193085E-03
     5.200008233298020        0.6787659966717165E-03
     5.210663987874451        0.5824098553866404E-03
     5.221319742450881        0.4935620860865048E-03
     5.231975497027312        0.4119809702345565E-03
     5.242631251603743        0.3374042291595169E-03
     5.253287006180172        0.2695487389516948E-03
     5.263942760756603        0.2081083410460098E-03
     5.274598515333033        0.1527476824363213E-03
     5.285254269909464        0.1030866003086141E-03
     5.295910024485894        0.5865762870538272E-04
     5.306565779062325        0.1874904152838432E-04
     5.317221533638754         0.000000000000000    
  1  2  1  1  0.000000   #orbital l, n, z, is_polarized, population
 500    0.1065575457643037E-01     5.317221533638754     # npts, delta, cutoff
     0.000000000000000         1.791285766253784    
    0.1065575457643037E-01     1.689220291626554    
    0.2131150915286074E-01     1.666260199880050    
    0.3196726372929111E-01     1.641880529803700    
    0.4262301830572148E-01     1.617593416944517    
    0.5327877288215185E-01     1.593784078607830    
    0.6393452745858222E-01     1.570537739306348    
    0.7459028203501260E-01     1.547848216878948    
    0.8524603661144296E-01     1.525682544407485    
    0.9590179118787333E-01     1.504003026131943    
    0.1065575457643037         1.482774773343535    
    0.1172133003407341         1.461967854493657    
    0.1278690549171644         1.441557383103902    
    0.1385248094935948         1.421522848246606    
    0.1491805640700252         1.401847225235717    
    0.1598363186464556         1.382516092632472    
    0.1704920732228859         1.363516848718169    
    0.1811478277993163         1.344838061680217    
    0.1918035823757467         1.326468960866453    
    0.2024593369521770         1.308399063861752    
    0.2131150915286074         1.290617928070091    
    0.2237708461050378         1.273115012484334    
    0.2344266006814681         1.255879633837182    
    0.2450823552578985         1.238901000659713    
    0.2557381098343289         1.222168308628653    
    0.2663938644107592         1.205670880843906    
    0.2770496189871896         1.189398337294469    
    0.2877053735636200         1.173340778720416    
    0.2983611281400504         1.157488971339853    
    0.3090168827164808         1.141834520452694    