<preamble>

<basis_specs>
===============================================================================
Sr                   Z=  38    Mass=  87.620        Charge=  1.6400    
Lmxo=2 Lmxkb= 2    BasisType=split      Semic=T
L=0  Nsemic=1  Cnfigmx=5
          i=1  nzeta=1  polorb=0  (4s)  (semicore shell)
            splnorm:   0.15000    
               vcte:    155.00    
               rinn:    6.0000    
               qcoe:    0.0000    
               qyuk:    0.0000    
               qwid:   0.10000E-01
                rcs:    6.4967    
            lambdas:    1.0000    
          i=2  nzeta=2  polorb=0  (5s)
            splnorm:   0.15000    
               vcte:    149.48    
               rinn:    6.5000    
               qcoe:    0.0000    
               qyuk:    0.0000    
               qwid:   0.10000E-01
                rcs:    6.9964      5.5015    
            lambdas:    1.0000      1.0000    
L=1  Nsemic=1  Cnfigmx=5
          i=1  nzeta=1  polorb=0  (4p)  (semicore shell)
            splnorm:   0.15000    
               vcte:    148.98    
               rinn:    5.6100    
               qcoe:    0.0000    
               qyuk:    0.0000    
               qwid:   0.10000E-01
                rcs:    6.7487    
            lambdas:    1.0000    
          i=2  nzeta=1  polorb=0  (5p)
            splnorm:   0.15000    
               vcte:    4.5700    
               rinn:    1.2000    
               qcoe:    0.0000    
               qyuk:    0.0000    
               qwid:   0.10000E-01
                rcs:    4.0002    
            lambdas:    1.0000    
L=2  Nsemic=0  Cnfigmx=4
          i=1  nzeta=1  polorb=0  (4d)
            splnorm:   0.15000    
               vcte:    146.26    
               rinn:    6.0900    
               qcoe:    0.0000    
               qyuk:    0.0000    
               qwid:   0.10000E-01
                rcs:    6.6281    
            lambdas:    1.0000    
-------------------------------------------------------------------------------
L=0  Nkbl=2  erefs: 0.17977+309 0.17977+309
L=1  Nkbl=2  erefs: 0.17977+309 0.17977+309
L=2  Nkbl=1  erefs: 0.17977+309
===============================================================================
</basis_specs>

<pseudopotential_header>
 Sr pb rel pcec
 ONCVPSP-3.2018-04-19Hamann's oncvpsp                        
 4s 2.00r r= 1.67/4p 6.00r r= 1.31/4d 0.00r r= 1.52/                    4s:4p:5s:
</pseudopotential_header>
</preamble>
Sr                            # Symbol
Sr                            # Label
   38                         # Atomic number
     10.0000000000                             # Valence charge
     87.6200000000        # Mass 
     120.323450105        # Self energy 
   2   6                      # Lmax for basis, no. of nl orbitals 
   2   8                      # Lmax for projectors, no. of nl KB projectors
# PAOs:__________________________
  0  4  1  0  2.000000   #orbital l, n, z, is_polarized, population
 500    0.1301940495895114E-01     6.496683074516620     # npts, delta, cutoff
     0.000000000000000        0.1639222810433211    
    0.1301940495895114E-01    0.1643369505951272    
    0.2603880991790228E-01    0.1655881954140384    
    0.3905821487685343E-01    0.1676704415671490    
    0.5207761983580457E-01    0.1705789519376931    
    0.6509702479475571E-01    0.1743071117368016    
    0.7811642975370686E-01    0.1788464445435284    
    0.9113583471265800E-01    0.1841866331302272    
    0.1041552396716091        0.1903155447002147    
    0.1171746446305603        0.1972192604046838    
    0.1301940495895114        0.2048821090444352    
    0.1432134545484626        0.2132867048859771    
    0.1562328595074137        0.2224139895428329    
    0.1692522644663648        0.2322432778907554    
    0.1822716694253160        0.2427523079982309    
    0.1952910743842671        0.2539172950600794    
    0.2083104793432183        0.2657129893218577    
    0.2213298843021694        0.2781127379763714    
    0.2343492892611206        0.2910885510016021    
    0.2473686942200717        0.3046111708925772    
    0.2603880991790228        0.3186501462189984    
    0.2734075041379740        0.3331739089166380    
    0.2864269090969251        0.3481498551943578    
    0.2994463140558763        0.3635444299108065    
    0.3124657190148274        0.3793232142458987    
    0.3254851239737785        0.3954510164627092    
    0.3385045289327297        0.4118919655258076    
    0.3515239338916809        0.4286096073128113    
    0.3645433388506320        0.4455670031274290    
    0.3775627438095832        0.4627268301949016    
    0.3905821487685343        0.4800514837948880    
    0.4036015537274854        0.4975031806628728    
    0.4166209586864366        0.5150440632693473    
    0.4296403636453877        0.5326363045667528    
    0.4426597686043389        0.5502422127776376    
    0.4556791735632900        0.5678243357840217    
    0.4686985785222411        0.5853455646677408    
    0.4817179834811923        0.6027692359447712    
    0.4947373884401434        0.6200592320334056    
    0.5077567933990945        0.6371800794967215    
    0.5207761983580457        0.6540970446042176    
    0.5337956033169968        0.6707762257658619    
    0.5468150082759480        0.6871846424040472    
    0.5598344132348991        0.7032903198452312    
    0.5728538181938503        0.7190623698331756    
    0.5858732231528014        0.7344710662897654    
    0.5988926281117526        0.7494879159771223    
    0.6119120330707037        0.7640857237461645    
    0.6249314380296549        0.7782386520914497    
    0.6379508429886059        0.7919222747701026    
    0.6509702479475571        0.8051136242832019    
    0.6639896529065082        0.8177912330610854    
    0.6770090578654594        0.8299351682389505    
    0.6900284628244105        0.8415270599554143    
    0.7030478677833617        0.8525501231537944    
    0.7160672727423129        0.8629891729130658    
    0.7290866777012640        0.8728306333821360    
    0.7421060826602152        0.8820625404365597    
    0.7551254876191663        0.8906745382204436    
    0.7681448925781174        0.8986578697773823    
    0.7811642975370685        0.9060053620123915    
    0.7941837024960197        0.9127114052612164    
    0.8072031074549708        0.9187719277739510    
    0.8202225124139220        0.9241843654460399    
    0.8332419173728731        0.9289476271512986    
    0.8462613223318243        0.9330620560484651    
    0.8592807272907754        0.9365293872448037    
    0.8723001322497266        0.9393527022075202    
    0.8853195372086777        0.9415363803162424    
    0.8983389421676289        0.9430860479476937    
    0.9113583471265799        0.9440085254772423    
    0.9243777520855311        0.9443117725713017    
    0.9373971570444822        0.9440048321301550    
    0.9504165620034334        0.9430977732227864    
    0.9634359669623845        0.9416016333343484    
    0.9764553719213357        0.9395283602233121    
    0.9894747768802868        0.9368907536597154    
     1.002494181839238        0.9337024072887651    
     1.015513586798189        0.9299776508359677    
     1.028532991757140        0.9257314928415177    
     1.041552396716091        0.9209795640834957    
     1.054571801675042        0.9157380618220532    
     1.067591206633994        0.9100236952267829    
     1.080610611592945        0.9038536310495329    
     1.093630016551896        0.8972454408483768    
     1.106649421510847        0.8902170498982036    
     1.119668826469798        0.8827866864115564    
     1.132688231428749        0.8749728321778022    
     1.145707636387701        0.8667941743475840    
     1.158727041346652        0.8582695583552592    
     1.171746446305603        0.8494179419672701    
     1.184765851264554        0.8402583504422871    
     1.197785256223505        0.8308098327891095    
     1.210804661182456        0.8210914191104344    
     1.223824066141407        0.8111220790242919    
     1.236843471100359        0.8009206811598142    
     1.249862876059310        0.7905059537298159    
     1.262882281018261        0.7798964461869301    
     1.275901685977212        0.7691104919818773    
     1.288921090936163        0.7581661724536151    
     1.301940495895114        0.7470812817834803    
     1.314959900854065        0.7358732932211737    
     1.327979305813016        0.7245593292355141    
     1.340998710771968        0.7131561383618522    
     1.354018115730919        0.7016800750243471    
     1.367037520689870        0.6901470732546293    
     1.380056925648821        0.6785726164780538    
     1.393076330607772        0.6669717098009006    
     1.406095735566723        0.6553588554307003    
     1.419115140525675        0.6437480247772929    
     1.432134545484626        0.6321526351500357    
     1.445153950443577        0.6205855355127958    
     1.458173355402528        0.6090589852074423    
     1.471192760361479        0.5975846367128196    
     1.484212165320430        0.5861735204521631    
     1.497231570279381        0.5748360317593927    
     1.510250975238333        0.5635819201107921    
     1.523270380197284        0.5524202807183641    
     1.536289785156235        0.5413595485692813    
     1.549309190115186        0.5304074949820354    
     1.562328595074137        0.5195712267343617    
     1.575348000033088        0.5088571878009241    
     1.588367404992039        0.4982711637204184    
     1.601386809950990        0.4878182885927996    
     1.614406214909942        0.4775030546665470    
     1.627425619868893        0.4673293241563483    
     1.640445024827844        0.4573003458594709    
     1.653464429786795        0.4474187712560731    
     1.666483834745746        0.4376866618013316    
     1.679503239704697        0.4281055464321173    
     1.692522644663649        0.4186765383289162    
     1.705542049622600        0.4094004569349483    
     1.718561454581551        0.4002778926346451    
     1.731580859540502        0.3913092093299216    
     1.744600264499453        0.3824945552186494    
     1.757619669458404        0.3738338804166841    
     1.770639074417355        0.3653269501239411    
     1.783658479376307        0.3569733574021737    
     1.796677884335258        0.3487725354689716    
     1.809697289294209        0.3407237693550471    
     1.822716694253160        0.3328262069718851    
     1.835736099212111        0.3250788696182429    
     1.848755504171062        0.3174806619472438    
     1.861774909130013        0.3100303814168551    
     1.874794314088964        0.3027267272453755    
     1.887813719047916        0.2955683088924673    
     1.900833124006867        0.2885536540853462    
     1.913852528965818        0.2816812164088588    
     1.926871933924769        0.2749493824773437    
     1.939891338883720        0.2683564787054509    
     1.952910743842671        0.2619007776943766    
     1.965930148801623        0.2555805042493655    
     1.978949553760574        0.2493938410437688    
     1.991968958719525        0.2433389339444327    
     2.004988363678476        0.2374138970127341    
     2.018007768637427        0.2316168171951874    
     2.031027173596378        0.2259457587171462    
     2.044046578555329        0.2203987671928133    
     2.057065983514280        0.2149738734644489    
     2.070085388473232        0.2096690971833727    
     2.083104793432183        0.2044824501450775    
     2.096124198391134        0.1994119393904909    
     2.109143603350085        0.1944555700851558    
     2.122163008309036        0.1896113481878168    
     2.135182413267987        0.1848772829195965    
     2.148201818226938        0.1802513890446747    
     2.161221223185890        0.1757316889730315    
     2.174240628144841        0.1713162146955104    
     2.187260033103792        0.1670030095610876    
     2.200279438062743        0.1627901299058886    
     2.213298843021694        0.1586756465430923    
     2.226318247980645        0.1546576461224830    
     2.239337652939597        0.1507342323680060    
     2.252357057898548        0.1469035272012686    
     2.265376462857499        0.1431636717585152    
     2.278395867816450        0.1395128273081850    
     2.291415272775401        0.1359491760757641    
     2.304434677734352        0.1324709219822102    
     2.317454082693303        0.1290762913018581    
     2.330473487652255        0.1257635332453075    
     2.343492892611206        0.1225309204724336    
     2.356512297570157        0.1193767495403004    
     2.369531702529108        0.1162993412904242    
     2.382551107488059        0.1132970411795074    
     2.395570512447010        0.1103682195574818    
     2.408589917405962        0.1075112718964001    
     2.421609322364913        0.1047246189734847    
     2.434628727323864        0.1020067070113851    
     2.447648132282815        0.9935600777849248E-01
     2.460667537241766        0.9677101865196677E-01
     2.473686942200717        0.9425026264594190E-01
     2.486706347159668        0.9179228840723108E-01
     2.499725752118620        0.8939567018069801E-01
     2.512745157077570        0.8705900774634473E-01
     2.525764562036521        0.8478092633003673E-01
     2.538783966995473        0.8256007648969819E-01
     2.551803371954424        0.8039513397871088E-01
     2.564822776913375        0.7828479958816606E-01
     2.577842181872326        0.7622779896955013E-01
     2.590861586831277        0.7422288243937220E-01
     2.603880991790228        0.7226882476717816E-01
     2.616900396749180        0.7036442494834233E-01
     2.629919801708131        0.6850850596296484E-01
     2.642939206667082        0.6669991452215475E-01
     2.655958611626033        0.6493752080292664E-01
     2.668978016584984        0.6322021817287825E-01
     2.681997421543935        0.6154692290577952E-01
     2.695016826502886        0.5991657388913327E-01
     2.708036231461838        0.5832813232472858E-01
     2.721055636420789        0.5678058142314550E-01
     2.734075041379740        0.5527292609311085E-01
     2.747094446338691        0.5380419262655679E-01
     2.760113851297642        0.5237342838016228E-01
     2.773133256256593        0.5097970145410738E-01
     2.786152661215545        0.4962210036870755E-01
     2.799172066174496        0.4829973373952992E-01
     2.812191471133447        0.4701172995153924E-01
     2.825210876092398        0.4575723683276441E-01
     2.838230281051349        0.4453542132791102E-01
     2.851249686010300        0.4334546917230574E-01
     2.864269090969251        0.4218658456649967E-01
     2.877288495928203        0.4105798985180837E-01
     2.890307900887154        0.3995892518704786E-01
     2.903327305846105        0.3888864822666208E-01
     2.916346710805056        0.3784643380042768E-01
     2.929366115764007        0.3683157359490000E-01
     2.942385520722958        0.3584337583673147E-01
     2.955404925681909        0.3488116497799651E-01
     2.968424330640861        0.3394428138364582E-01
     2.981443735599812        0.3303208102120995E-01
     2.994463140558763        0.3214393515286828E-01
     3.007482545517714        0.3127923003001915E-01
     3.020501950476665        0.3043736659047601E-01
     3.033521355435616        0.2961776015842583E-01
     3.046540760394568        0.2881984014730621E-01
     3.059560165353518        0.2804304976574165E-01
     3.072579570312469        0.2728684572669718E-01
     3.085598975271421        0.2655069796001430E-01
     3.098618380230372        0.2583408932847570E-01
     3.111637785189323        0.2513651534755825E-01
     3.124657190148274        0.2445748390902249E-01
     3.137676595107225        0.2379651500847324E-01
     3.150696000066176        0.2315314047701902E-01
     3.163715405025127        0.2252690371714297E-01
     3.176734809984079        0.2191735944288502E-01
     3.189754214943030        0.2132407342441050E-01
     3.202773619901981        0.2074662223703261E-01
     3.215793024860932        0.2018459301473582E-01
     3.228812429819883        0.1963758320822632E-01
     3.241831834778834        0.1910520034752198E-01
     3.254851239737786        0.1858706180908681E-01
     3.267870644696737        0.1808279458748597E-01
     3.280890049655688        0.1759203507153808E-01
     3.293909454614639        0.1711442882492793E-01
     3.306928859573590        0.1664963037123108E-01
     3.319948264532541        0.1619730298329547E-01
     3.332967669491492        0.1575711847692512E-01
     3.345987074450444        0.1532875700879796E-01
     3.359006479409395        0.1491190687855488E-01
     3.372025884368346        0.1450626433498959E-01
     3.385045289327297        0.1411153338627283E-01
     3.398064694286248        0.1372742561414056E-01
     3.411084099245199        0.1335365999197755E-01
     3.424103504204151        0.1298996270673003E-01
     3.437122909163102        0.1263606698458109E-01
     3.450142314122053        0.1229171292032270E-01
     3.463161719081004        0.1195664731036245E-01
     3.476181124039955        0.1163062348930397E-01
     3.489200528998906        0.1131340117003918E-01
     3.502219933957857        0.1100474628729454E-01
     3.515239338916809        0.1070443084457576E-01
     3.528258743875760        0.1041223276445182E-01
     3.541278148834711        0.1012793574212637E-01
     3.554297553793662        0.9851329102242578E-02
     3.567316958752613        0.9582207658864320E-02
     3.580336363711564        0.9320371578582301E-02
     3.593355768670516        0.9065626246679658E-02
     3.606375173629467        0.8817782136340229E-02
     3.619394578588417        0.8576654680902048E-02
     3.632413983547369        0.8342064149013858E-02
     3.645433388506320        0.8113835522678286E-02
     3.658452793465271        0.7891798377734318E-02
     3.671472198424222        0.7675786767204968E-02
     3.684491603383173        0.7465639107460904E-02
     3.697511008342124        0.7261198067575775E-02
     3.710530413301075        0.7062310461623214E-02
     3.723549818260027        0.6868827143338085E-02
     3.736569223218978        0.6680602903304123E-02
     3.749588628177929        0.6497496368898061E-02
     3.762608033136880        0.6319369906127185E-02
     3.775627438095831        0.6146089523827034E-02
     3.788646843054782        0.5977524777233510E-02
     3.801666248013734        0.5813548673629598E-02
     3.814685652972685        0.5654037580449257E-02
     3.827705057931636        0.5498871137725394E-02
     3.840724462890587        0.5347932176126411E-02
     3.853743867849538        0.5201106636590592E-02
     3.866763272808489        0.5058283492331478E-02
     3.879782677767440        0.4919354670139871E-02
     3.892802082726392        0.4784214973180926E-02
     3.905821487685343        0.4652762005655919E-02
     3.918840892644294        0.4524896099486320E-02
     3.931860297603245        0.4400520243507947E-02
     3.944879702562196        0.4279540014239471E-02
     3.957899107521147        0.4161863508418411E-02
     3.970918512480099        0.4047401277137855E-02
     3.983937917439050        0.3936066261618207E-02
     3.996957322398001        0.3827773730625190E-02
     4.009976727356952        0.3722441219468740E-02
     4.022996132315903        0.3619988470545480E-02
     4.036015537274854        0.3520337375387887E-02
     4.049034942233805        0.3423411918184486E-02
     4.062054347192756        0.3329138120736411E-02
     4.075073752151708        0.3237443988816092E-02
     4.088093157110658        0.3148259459894311E-02
     4.101112562069610        0.3061516352202713E-02
     4.114131967028561        0.2977148315099731E-02
     4.127151371987512        0.2895090780708241E-02
     4.140170776946463        0.2815280916794377E-02
     4.153190181905415        0.2737657580856910E-02
     4.166209586864365        0.2662161275398187E-02
     4.179228991823317        0.2588734104347089E-02
     4.192248396782268        0.2517319730606394E-02
     4.205267801741219        0.2447863334696431E-02
     4.218287206700170        0.2380311574468231E-02
     4.231306611659122        0.2314612545859670E-02
     4.244326016618072        0.2250715744668744E-02
     4.257345421577024        0.2188572029318772E-02
     4.270364826535975        0.2128133584590848E-02
     4.283384231494926        0.2069353886299348E-02
     4.296403636453877        0.2012187666887056E-02
     4.309423041412829        0.1956590881916646E-02
     4.322442446371779        0.1902520677436345E-02
     4.335461851330731        0.1849935358197559E-02
     4.348481256289682        0.1798794356703018E-02
     4.361500661248633        0.1749058203064651E-02
     4.374520066207584        0.1700688495650537E-02
     4.387539471166535        0.1653647872501050E-02
     4.400558876125486        0.1607899983494668E-02
     4.413578281084438        0.1563409463244354E-02
     4.426597686043388        0.1520141904705993E-02
     4.439617091002340        0.1478063833480715E-02
     4.452636495961291        0.1437142682793280E-02
     4.465655900920241        0.1397346769129429E-02
     4.478675305879193        0.1358645268515199E-02
     4.491694710838144        0.1321008193421781E-02
     4.504714115797095        0.1284406370279824E-02
     4.517733520756046        0.1248811417587616E-02
     4.530752925714998        0.1214195724597718E-02
     4.543772330673948        0.1180532430567268E-02
     4.556791735632900        0.1147795404557279E-02
     4.569811140591851        0.1115959225766890E-02
     4.582830545550802        0.1084999164388596E-02
     4.595849950509753        0.1054891162971028E-02
     4.608869355468705        0.1025611818276111E-02
     4.621888760427655        0.9971383636178039E-03
     4.634908165386607        0.9694486516697694E-03
     4.647927570345558        0.9425211377299523E-03
     4.660946975304509        0.9163348634300404E-03
     4.673966380263460        0.8908694408782324E-03
     4.686985785222411        0.8661050372240251E-03
     4.700005190181362        0.8420223596339902E-03
     4.713024595140314        0.8186026406677477E-03
     4.726044000099265        0.7958276240437132E-03
     4.739063405058216        0.7736795507843723E-03
     4.752082810017167        0.7521411457311363E-03
     4.765102214976118        0.7311956044190542E-03
     4.778121619935069        0.7108265803019670E-03
     4.791141024894021        0.6910181723188327E-03
     4.804160429852971        0.6717549127922777E-03
     4.817179834811923        0.6530217556505927E-03
     4.830199239770874        0.6348040649646911E-03
     4.843218644729825        0.6170876037916015E-03
     4.856238049688776        0.5998585233165552E-03
     4.869257454647728        0.5831033522856357E-03
     4.882276859606678        0.5668089867213527E-03
     4.895296264565630        0.5509626799136577E-03
     4.908315669524581        0.5355520326790953E-03
     4.921335074483532        0.5205649838809121E-03
     4.934354479442483        0.5059898012032994E-03
     4.947373884401435        0.4918150721729350E-03
     4.960393289360385        0.4780296954212601E-03
     4.973412694319337        0.4646228721810991E-03
     4.986432099278288        0.4515840980113922E-03
     4.999451504237239        0.4389031547438831E-03
     5.012470909196190        0.4265701026459451E-03
     5.025490314155141        0.4145752727936833E-03
     5.038509719114092        0.4029092596497249E-03
     5.051529124073043        0.3915629138402500E-03
     5.064548529031994        0.3805273351258609E-03
     5.077567933990945        0.3697938655611556E-03
     5.090587338949897        0.3593540828379140E-03
     5.103606743908847        0.3491997938069763E-03
     5.116626148867799        0.3393230281739991E-03
     5.129645553826750        0.3297160323644463E-03
     5.142664958785701        0.3203712635532080E-03
     5.155684363744652        0.3112813838544652E-03
     5.168703768703604        0.3024392546674386E-03
     5.181723173662554        0.2938379311738413E-03
     5.194742578621506        0.2854706569829241E-03
     5.207761983580457        0.2773308589201169E-03
     5.220781388539408        0.2694121419553891E-03
     5.233800793498359        0.2617082842675616E-03
     5.246820198457311        0.2542132324408207E-03
     5.259839603416261        0.2469210967899249E-03
     5.272859008375213        0.2398261468105548E-03
     5.285878413334164        0.2329228067514055E-03
     5.298897818293115        0.2262056513047268E-03
     5.311917223252066        0.2196694014120570E-03
     5.324936628211018        0.2133089201820290E-03
     5.337956033169968        0.2071192089171632E-03
     5.350975438128920        0.2010954032466689E-03
     5.363994843087871        0.1952327693623658E-03
     5.377014248046822        0.1895267003548642E-03
     5.390033653005773        0.1839727126472922E-03
     5.403053057964724        0.1785664425238256E-03
     5.416072462923675        0.1733036427504701E-03
     5.429091867882627        0.1681801792855060E-03
     5.442111272841577        0.1631920280771290E-03
     5.455130677800529        0.1583352719458764E-03
     5.468150082759480        0.1536060975494824E-03
     5.481169487718431        0.1490007924278645E-03
     5.494188892677382        0.1445157421260254E-03
     5.507208297636334        0.1401474273926727E-03
     5.520227702595284        0.1358924214524717E-03
     5.533247107554236        0.1317473873498246E-03
     5.546266512513187        0.1277090753622098E-03
     5.559285917472137        0.1237743204810984E-03
     5.572305322431089        0.1199400399585418E-03
     5.585324727390040        0.1162032309175831E-03
     5.598344132348991        0.1125609680246699E-03
     5.611363537307942        0.1090104012223148E-03
     5.624382942266894        0.1055487535202726E-03
     5.637402347225844        0.1021733188435723E-03
     5.650421752184796        0.9888145993576435E-04
     5.663441157143747        0.9567060631578456E-04
     5.676460562102698        0.9253825228690445E-04
     5.689479967061649        0.8948195499623406E-04
     5.702499372020601        0.8649933254331873E-04
     5.715518776979551        0.8358806213638669E-04
     5.728538181938503        0.8074587829485038E-04
     5.741557586897454        0.7797057109669617E-04
     5.754576991856405        0.7525998446942310E-04
     5.767596396815356        0.7261201452324849E-04
     5.780615801774307        0.7002460792529320E-04
     5.793635206733258        0.6749576031353133E-04
     5.806654611692210        0.6502351474928312E-04
     5.819674016651160        0.6260596020708386E-04
     5.832693421610112        0.6024123010078379E-04
     5.845712826569063        0.5792750084474741E-04
     5.858732231528014        0.5566299044907107E-04
     5.871751636486965        0.5344595714774611E-04
     5.884771041445917        0.5127469805872750E-04
     5.897790446404867        0.4914754787488782E-04
     5.910809851363819        0.4706287758486751E-04
     5.923829256322770        0.4501909322284821E-04
     5.936848661281721        0.4301463464629522E-04
     5.949868066240672        0.4104797434075582E-04
     5.962887471199624        0.3911761625078805E-04
     5.975906876158574        0.3722209463615609E-04
     5.988926281117526        0.3535997295240295E-04
     6.001945686076477        0.3352984275497465E-04
     6.014965091035428        0.3173032262602818E-04
     6.027984495994379        0.2996005712372634E-04
     6.041003900953331        0.2821771610172657E-04
     6.054023305912281        0.2650200906382227E-04
     6.067042710871233        0.2481182026865593E-04
     6.080062115830184        0.2314662222006653E-04
     6.093081520789135        0.2150706501721081E-04
     6.106100925748086        0.1989543000541241E-04
     6.119120330707037        0.1831575555730302E-04
     6.132139735665988        0.1677363984471626E-04
     6.145159140624939        0.1527582528594558E-04
     6.158178545583890        0.1382968184147249E-04
     6.171197950542841        0.1244268113908803E-04
     6.184217355501793        0.1112192136449680E-04
     6.197236760460743        0.9873735875227458E-05
     6.210256165419695        0.8703399056770219E-05
     6.223275570378646        0.7614930121241859E-05
     6.236294975337597        0.6610987696802140E-05
     6.249314380296548        0.5692843679474211E-05
     6.262333785255500        0.4860422788375133E-05
     6.275353190214450        0.4112393779592667E-05
     6.288372595173402        0.3446298778774248E-05
     6.301392000132353        0.2858708306540560E-05
     6.314411405091304        0.2345391030619740E-05
     6.327430810050255        0.1901488901463694E-05
     6.340450215009207        0.1521689987189290E-05
     6.353469619968157        0.1200392931649682E-05
     6.366489024927109        0.9318584569623116E-06
     6.379508429886060        0.7103446794155597E-06
     6.392527834845011        0.5302241781774130E-06
     6.405547239803962        0.3860817261748785E-06
     6.418566644762913        0.2727923259390284E-06
     6.431586049721864        0.1855796010478103E-06
     6.444605454680816        0.1200544039279978E-06
     6.457624859639767        0.7223175945713159E-07
     6.470644264598718        0.3851694065738314E-07
     6.483663669557669        0.1561543273179037E-07
     6.496683074516620         0.000000000000000    
  0  5  1  0  2.000000   #orbital l, n, z, is_polarized, population
 500    0.1402092307784884E-01     6.996440615846571     # npts, delta, cutoff
     0.000000000000000        0.9872321017626455E-01
    0.1402092307784884E-01    0.9900162679183803E-01
    0.2804184615569768E-01    0.9984079948164179E-01
    0.4206276923354652E-01    0.1012360693471128    
    0.5608369231139536E-01    0.1031824289805075    