********************************************************************************
*                       GENERAL UTILITY LATTICE PROGRAM                        *
*                                 Julian Gale                                  *
*                       Curtin Institute for Computation                       *
*                    School of Molecular and Life Sciences                     *
*                    Curtin University, Western Australia                      *
********************************************************************************
* Version = 6.0.0 * Last modified =  12th July 2021                            *
********************************************************************************
*  optimise     - perform optimisation run                                     *
*  conv         - constant volume calculation                                  *
*  phonon       - calculate phonons for final geometry                         *
*  dynamical    - output dynamical matrix                                      *
*  nod3         - do not calculate third derivatives for ShengBTE              *
*  nosymmetry   - turn off symmetry after initial structure generation         *
*  full         - generate full unit cell when symmetry is removed             *
*  distance     - calculate distances                                          *
********************************************************************************

  Job Started  at 12:02.17 19th April      2022                               

  Number of CPUs =     1

  Host name      = atlas-019                               


  Total number of configurations input =      1

********************************************************************************
*  Input for Configuration =   1                                               *
********************************************************************************

  Formula = C128                                                        

  Number of irreducible atoms/shells =     128


  Total number atoms/shells =     128

  Dimensionality = 3               :  Bulk   



  Cartesian lattice vectors (Angstroms) :

       17.040000    9.838049    0.000000
       17.040000   -9.838049    0.000000
        0.000000    0.000000   14.200000

  Cell parameters (Angstroms/Degrees):

  a =      19.6761    alpha =  90.0000
  b =      19.6761    beta  =  90.0000
  c =      14.2000    gamma =  60.0000

  Initial cell volume =        4760.986081 Angs**3

  Temperature of configuration =   0.00     K 

  Pressure of configuration =         0.000 GPa 

  Fractional coordinates of asymmetric unit :

--------------------------------------------------------------------------------
   No.  Atomic       x           y          z         Charge      Occupancy
        Label      (Frac)      (Frac)     (Frac)        (e)         (Frac)  
--------------------------------------------------------------------------------
      1 C     c    0.041667    0.041667    0.500000     0.00000    1.000000    
      2 C     c    0.083333 *  0.083333 *  0.500000 *   0.00000    1.000000    
      3 C     c    0.166667 *  0.041667 *  0.500000 *   0.00000    1.000000    
      4 C     c    0.208333 *  0.083333 *  0.500000 *   0.00000    1.000000    
      5 C     c    0.291667 *  0.041667 *  0.500000 *   0.00000    1.000000    
      6 C     c    0.333333 *  0.083333 *  0.500000 *   0.00000    1.000000    
      7 C     c    0.416667 *  0.041667 *  0.500000 *   0.00000    1.000000    
      8 C     c    0.458333 *  0.083333 *  0.500000 *   0.00000    1.000000    
      9 C     c    0.541667 *  0.041667 *  0.500000 *   0.00000    1.000000    
     10 C     c    0.583333 *  0.083333 *  0.500000 *   0.00000    1.000000    
     11 C     c    0.666667 *  0.041667 *  0.500000 *   0.00000    1.000000    
     12 C     c    0.708333 *  0.083333 *  0.500000 *   0.00000    1.000000    
     13 C     c    0.791667 *  0.041667 *  0.500000 *   0.00000    1.000000    
     14 C     c    0.833333 *  0.083333 *  0.500000 *   0.00000    1.000000    
     15 C     c    0.916667 *  0.041667 *  0.500000 *   0.00000    1.000000    
     16 C     c    0.958333 *  0.083333 *  0.500000 *   0.00000    1.000000    
     17 C     c    0.041667 *  0.166667 *  0.500000 *   0.00000    1.000000    
     18 C     c    0.083333 *  0.208333 *  0.500000 *   0.00000    1.000000    
     19 C     c    0.166667 *  0.166667 *  0.500000 *   0.00000    1.000000    
     20 C     c    0.208333 *  0.208333 *  0.500000 *   0.00000    1.000000    
     21 C     c    0.291667 *  0.166667 *  0.500000 *   0.00000    1.000000    
     22 C     c    0.333333 *  0.208333 *  0.500000 *   0.00000    1.000000    
     23 C     c    0.416667 *  0.166667 *  0.500000 *   0.00000    1.000000    
     24 C     c    0.458333 *  0.208333 *  0.500000 *   0.00000    1.000000    
     25 C     c    0.541667 *  0.166667 *  0.500000 *   0.00000    1.000000    
     26 C     c    0.583333 *  0.208333 *  0.500000 *   0.00000    1.000000    
     27 C     c    0.666667 *  0.166667 *  0.500000 *   0.00000    1.000000    
     28 C     c    0.708333 *  0.208333 *  0.500000 *   0.00000    1.000000    
     29 C     c    0.791667 *  0.166667 *  0.500000 *   0.00000    1.000000    
     30 C     c    0.833333 *  0.208333 *  0.500000 *   0.00000    1.000000    
     31 C     c    0.916667 *  0.166667 *  0.500000 *   0.00000    1.000000    
     32 C     c    0.958333 *  0.208333 *  0.500000 *   0.00000    1.000000    
     33 C     c    0.041667 *  0.291667 *  0.500000 *   0.00000    1.000000    
     34 C     c    0.083333 *  0.333333 *  0.500000 *   0.00000    1.000000    
     35 C     c    0.166667 *  0.291667 *  0.500000 *   0.00000    1.000000    
     36 C     c    0.208333 *  0.333333 *  0.500000 *   0.00000    1.000000    
     37 C     c    0.291667 *  0.291667 *  0.500000 *   0.00000    1.000000    
     38 C     c    0.333333 *  0.333333 *  0.500000 *   0.00000    1.000000    
     39 C     c    0.416667 *  0.291667 *  0.500000 *   0.00000    1.000000    
     40 C     c    0.458333 *  0.333333 *  0.500000 *   0.00000    1.000000    
     41 C     c    0.541667 *  0.291667 *  0.500000 *   0.00000    1.000000    
     42 C     c    0.583333 *  0.333333 *  0.500000 *   0.00000    1.000000    
     43 C     c    0.666667 *  0.291667 *  0.500000 *   0.00000    1.000000    
     44 C     c    0.708333 *  0.333333 *  0.500000 *   0.00000    1.000000    
     45 C     c    0.791667 *  0.291667 *  0.500000 *   0.00000    1.000000    
     46 C     c    0.833333 *  0.333333 *  0.500000 *   0.00000    1.000000    
     47 C     c    0.916667 *  0.291667 *  0.500000 *   0.00000    1.000000    
     48 C     c    0.958333 *  0.333333 *  0.500000 *   0.00000    1.000000    
     49 C     c    0.041667 *  0.416667 *  0.500000 *   0.00000    1.000000    
     50 C     c    0.083333 *  0.458333 *  0.500000 *   0.00000    1.000000    
     51 C     c    0.166667 *  0.416667 *  0.500000 *   0.00000    1.000000    
     52 C     c    0.208333 *  0.458333 *  0.500000 *   0.00000    1.000000    
     53 C     c    0.291667 *  0.416667 *  0.500000 *   0.00000    1.000000    
     54 C     c    0.333333 *  0.458333 *  0.500000 *   0.00000    1.000000    
     55 C     c    0.416667 *  0.416667 *  0.500000 *   0.00000    1.000000    
     56 C     c    0.458333 *  0.458333 *  0.500000 *   0.00000    1.000000    
     57 C     c    0.541667 *  0.416667 *  0.500000 *   0.00000    1.000000    
     58 C     c    0.583333 *  0.458333 *  0.500000 *   0.00000    1.000000    
     59 C     c    0.666667 *  0.416667 *  0.500000 *   0.00000    1.000000    
     60 C     c    0.708333 *  0.458333 *  0.500000 *   0.00000    1.000000    
     61 C     c    0.791667 *  0.416667 *  0.500000 *   0.00000    1.000000    
     62 C     c    0.833333 *  0.458333 *  0.500000 *   0.00000    1.000000    
     63 C     c    0.916667 *  0.416667 *  0.500000 *   0.00000    1.000000    
     64 C     c    0.958333 *  0.458333 *  0.500000 *   0.00000    1.000000    
     65 C     c    0.041667 *  0.541667 *  0.500000 *   0.00000    1.000000    
     66 C     c    0.083333 *  0.583333 *  0.500000 *   0.00000    1.000000    
     67 C     c    0.166667 *  0.541667 *  0.500000 *   0.00000    1.000000    
     68 C     c    0.208333 *  0.583333 *  0.500000 *   0.00000    1.000000    
     69 C     c    0.291667 *  0.541667 *  0.500000 *   0.00000    1.000000    
     70 C     c    0.333333 *  0.583333 *  0.500000 *   0.00000    1.000000    
     71 C     c    0.416667 *  0.541667 *  0.500000 *   0.00000    1.000000    
     72 C     c    0.458333 *  0.583333 *  0.500000 *   0.00000    1.000000    
     73 C     c    0.541667 *  0.541667 *  0.500000 *   0.00000    1.000000    
     74 C     c    0.583333 *  0.583333 *  0.500000 *   0.00000    1.000000    
     75 C     c    0.666667 *  0.541667 *  0.500000 *   0.00000    1.000000    
     76 C     c    0.708333 *  0.583333 *  0.500000 *   0.00000    1.000000    
     77 C     c    0.791667 *  0.541667 *  0.500000 *   0.00000    1.000000    
     78 C     c    0.833333 *  0.583333 *  0.500000 *   0.00000    1.000000    
     79 C     c    0.916667 *  0.541667 *  0.500000 *   0.00000    1.000000    
     80 C     c    0.958333 *  0.583333 *  0.500000 *   0.00000    1.000000    
     81 C     c    0.041667 *  0.666667 *  0.500000 *   0.00000    1.000000    
     82 C     c    0.083333 *  0.708333 *  0.500000 *   0.00000    1.000000    
     83 C     c    0.166667 *  0.666667 *  0.500000 *   0.00000    1.000000    
     84 C     c    0.208333 *  0.708333 *  0.500000 *   0.00000    1.000000    
     85 C     c    0.291667 *  0.666667 *  0.500000 *   0.00000    1.000000    
     86 C     c    0.333333 *  0.708333 *  0.500000 *   0.00000    1.000000    
     87 C     c    0.416667 *  0.666667 *  0.500000 *   0.00000    1.000000    
     88 C     c    0.458333 *  0.708333 *  0.500000 *   0.00000    1.000000    
     89 C     c    0.541667 *  0.666667 *  0.500000 *   0.00000    1.000000    
     90 C     c    0.583333 *  0.708333 *  0.500000 *   0.00000    1.000000    
     91 C     c    0.666667 *  0.666667 *  0.500000 *   0.00000    1.000000    
     92 C     c    0.708333 *  0.708333 *  0.500000 *   0.00000    1.000000    
     93 C     c    0.791667 *  0.666667 *  0.500000 *   0.00000    1.000000    
     94 C     c    0.833333 *  0.708333 *  0.500000 *   0.00000    1.000000    
     95 C     c    0.916667 *  0.666667 *  0.500000 *   0.00000    1.000000    
     96 C     c    0.958333 *  0.708333 *  0.500000 *   0.00000    1.000000    
     97 C     c    0.041667 *  0.791667 *  0.500000 *   0.00000    1.000000    
     98 C     c    0.083333 *  0.833333 *  0.500000 *   0.00000    1.000000    
     99 C     c    0.166667 *  0.791667 *  0.500000 *   0.00000    1.000000    
    100 C     c    0.208333 *  0.833333 *  0.500000 *   0.00000    1.000000    
    101 C     c    0.291667 *  0.791667 *  0.500000 *   0.00000    1.000000    
    102 C     c    0.333333 *  0.833333 *  0.500000 *   0.00000    1.000000    
    103 C     c    0.416667 *  0.791667 *  0.500000 *   0.00000    1.000000    
    104 C     c    0.458333 *  0.833333 *  0.500000 *   0.00000    1.000000    
    105 C     c    0.541667 *  0.791667 *  0.500000 *   0.00000    1.000000    
    106 C     c    0.583333 *  0.833333 *  0.500000 *   0.00000    1.000000    
    107 C     c    0.666667 *  0.791667 *  0.500000 *   0.00000    1.000000    
    108 C     c    0.708333 *  0.833333 *  0.500000 *   0.00000    1.000000    
    109 C     c    0.791667 *  0.791667 *  0.500000 *   0.00000    1.000000    
    110 C     c    0.833333 *  0.833333 *  0.500000 *   0.00000    1.000000    
    111 C     c    0.916667 *  0.791667 *  0.500000 *   0.00000    1.000000    
    112 C     c    0.958333 *  0.833333 *  0.500000 *   0.00000    1.000000    
    113 C     c    0.041667 *  0.916667 *  0.500000 *   0.00000    1.000000    
    114 C     c    0.083333 *  0.958333 *  0.500000 *   0.00000    1.000000    
    115 C     c    0.166667 *  0.916667 *  0.500000 *   0.00000    1.000000    
    116 C     c    0.208333 *  0.958333 *  0.500000 *   0.00000    1.000000    
    117 C     c    0.291667 *  0.916667 *  0.500000 *   0.00000    1.000000    
    118 C     c    0.333333 *  0.958333 *  0.500000 *   0.00000    1.000000    
    119 C     c    0.416667 *  0.916667 *  0.500000 *   0.00000    1.000000    
    120 C     c    0.458333 *  0.958333 *  0.500000 *   0.00000    1.000000    
    121 C     c    0.541667 *  0.916667 *  0.500000 *   0.00000    1.000000    
    122 C     c    0.583333 *  0.958333 *  0.500000 *   0.00000    1.000000    
    123 C     c    0.666667 *  0.916667 *  0.500000 *   0.00000    1.000000    
    124 C     c    0.708333 *  0.958333 *  0.500000 *   0.00000    1.000000    
    125 C     c    0.791667 *  0.916667 *  0.500000 *   0.00000    1.000000    
    126 C     c    0.833333 *  0.958333 *  0.500000 *   0.00000    1.000000    
    127 C     c    0.916667 *  0.916667 *  0.500000 *   0.00000    1.000000    
    128 C     c    0.958333 *  0.958333 *  0.500000 *   0.00000    1.000000    
--------------------------------------------------------------------------------



  Distance calculation :


  Cutoff for distances  =      3.000000 Angstroms

--------------------------------------------------------------------------------
  Asymmetric unit site  Full lattice sites    No.  Distance      No.  Distance
      No.   At.No.            At.No.                (Angs)             (Angs) 
--------------------------------------------------------------------------------
       1   C     core        C     core         3    1.4200        6    2.4595
                                                3    2.8400
--------------------------------------------------------------------------------
       2   C     core        C     core         3    1.4200        6    2.4595
                                                3    2.8400
--------------------------------------------------------------------------------
       3   C     core        C     core         3    1.4200        6    2.4595
                                                3    2.8400
--------------------------------------------------------------------------------
       4   C     core        C     core         3    1.4200        6    2.4595
                                                3    2.8400
--------------------------------------------------------------------------------
       5   C     core        C     core         3    1.4200        6    2.4595
                                                3    2.8400
--------------------------------------------------------------------------------
       6   C     core        C     core         3    1.4200        6    2.4595
                                                3    2.8400
--------------------------------------------------------------------------------
       7   C     core        C     core         3    1.4200        6    2.4595
                                                3    2.8400
--------------------------------------------------------------------------------
       8   C     core        C     core         3    1.4200        6    2.4595
                                                3    2.8400
--------------------------------------------------------------------------------
       9   C     core        C     core         3    1.4200        6    2.4595
                                                3    2.8400
--------------------------------------------------------------------------------
      10   C     core        C     core         3    1.4200        6    2.4595
                                                3    2.8400
--------------------------------------------------------------------------------
      11   C     core        C     core         3    1.4200        6    2.4595
                                                3    2.8400
--------------------------------------------------------------------------------
      12   C     core        C     core         3    1.4200        6    2.4595
                                                3    2.8400
--------------------------------------------------------------------------------
      13   C     core        C     core         3    1.4200        6    2.4595
                                                3    2.8400
--------------------------------------------------------------------------------
      14   C     core        C     core         3    1.4200        6    2.4595
                                                3    2.8400
--------------------------------------------------------------------------------
      15   C     core        C     core         3    1.4200        6    2.4595
                                                3    2.8400
--------------------------------------------------------------------------------
      16   C     core        C     core         3    1.4200        6    2.4595
                                                3    2.8400
--------------------------------------------------------------------------------
      17   C     core        C     core         3    1.4200        6    2.4595
                                                3    2.8400
--------------------------------------------------------------------------------
      18   C     core        C     core         3    1.4200        6    2.4595
                                                3    2.8400
--------------------------------------------------------------------------------
      19   C     core        C     core         3    1.4200        6    2.4595
                                                3    2.8400
--------------------------------------------------------------------------------
      20   C     core        C     core         3    1.4200        6    2.4595
                                                3    2.8400
--------------------------------------------------------------------------------
      21   C     core        C     core         3    1.4200        6    2.4595
                                                3    2.8400
--------------------------------------------------------------------------------
      22   C     core        C     core         3    1.4200        6    2.4595
                                                3    2.8400
--------------------------------------------------------------------------------
      23   C     core        C     core         3    1.4200        6    2.4595
                                                3    2.8400
--------------------------------------------------------------------------------
      24   C     core        C     core         3    1.4200        6    2.4595
                                                3    2.8400
--------------------------------------------------------------------------------
      25   C     core        C     core         3    1.4200        6    2.4595
                                                3    2.8400
--------------------------------------------------------------------------------
      26   C     core        C     core         3    1.4200        6    2.4595
                                                3    2.8400
--------------------------------------------------------------------------------
      27   C     core        C     core         3    1.4200        6    2.4595
                                                3    2.8400
--------------------------------------------------------------------------------
      28   C     core        C     core         3    1.4200        6    2.4595
                                                3    2.8400
--------------------------------------------------------------------------------
      29   C     core        C     core         3    1.4200        6    2.4595
                                                3    2.8400
--------------------------------------------------------------------------------
      30   C     core        C     core         3    1.4200        6    2.4595
                                                3    2.8400
--------------------------------------------------------------------------------
      31   C     core        C     core         3    1.4200        6    2.4595
                                                3    2.8400
--------------------------------------------------------------------------------
      32   C     core        C     core         3    1.4200        6    2.4595
                                                3    2.8400
--------------------------------------------------------------------------------
      33   C     core        C     core         3    1.4200        6    2.4595
                                                3    2.8400
--------------------------------------------------------------------------------
      34   C     core        C     core         3    1.4200        6    2.4595
                                                3    2.8400
--------------------------------------------------------------------------------
      35   C     core        C     core         3    1.4200        6    2.4595
                                                3    2.8400
--------------------------------------------------------------------------------
      36   C     core        C     core         3    1.4200        6    2.4595
                                                3    2.8400
--------------------------------------------------------------------------------
      37   C     core        C     core         3    1.4200        6    2.4595
                                                3    2.8400
--------------------------------------------------------------------------------
      38   C     core        C     core         3    1.4200        6    2.4595
                                                3    2.8400
--------------------------------------------------------------------------------
      39   C     core        C     core         3    1.4200        6    2.4595
                                                3    2.8400
--------------------------------------------------------------------------------
      40   C     core        C     core         3    1.4200        6    2.4595
                                                3    2.8400
--------------------------------------------------------------------------------
      41   C     core        C     core         3    1.4200        6    2.4595
                                                3    2.8400
--------------------------------------------------------------------------------
      42   C     core        C     core         3    1.4200        6    2.4595
                                                3    2.8400
--------------------------------------------------------------------------------
      43   C     core        C     core         3    1.4200        6    2.4595
                                                3    2.8400
--------------------------------------------------------------------------------
      44   C     core        C     core         3    1.4200        6    2.4595
                                                3    2.8400
--------------------------------------------------------------------------------
      45   C     core        C     core         3    1.4200        6    2.4595
                                                3    2.8400
--------------------------------------------------------------------------------
      46   C     core        C     core         3    1.4200        6    2.4595
                                                3    2.8400
--------------------------------------------------------------------------------
      47   C     core        C     core         3    1.4200        6    2.4595
                                                3    2.8400
--------------------------------------------------------------------------------
      48   C     core        C     core         3    1.4200        6    2.4595
                                                3    2.8400
--------------------------------------------------------------------------------
      49   C     core        C     core         3    1.4200        6    2.4595
                                                3    2.8400
--------------------------------------------------------------------------------
      50   C     core        C     core         3    1.4200        6    2.4595
                                                3    2.8400
--------------------------------------------------------------------------------
      51   C     core        C     core         3    1.4200        6    2.4595
                                                3    2.8400
--------------------------------------------------------------------------------
      52   C     core        C     core         3    1.4200        6    2.4595
                                                3    2.8400
--------------------------------------------------------------------------------
      53   C     core        C     core         3    1.4200        6    2.4595
                                                3    2.8400
--------------------------------------------------------------------------------
      54   C     core        C     core         3    1.4200        6    2.4595
                                                3    2.8400
--------------------------------------------------------------------------------
      55   C     core        C     core         3    1.4200        6    2.4595
                                                3    2.8400
--------------------------------------------------------------------------------
      56   C     core        C     core         3    1.4200        6    2.4595
                                                3    2.8400
--------------------------------------------------------------------------------
      57   C     core        C     core         3    1.4200        6    2.4595
                                                3    2.8400
--------------------------------------------------------------------------------
      58   C     core        C     core         3    1.4200        6    2.4595
                                                3    2.8400
--------------------------------------------------------------------------------
      59   C     core        C     core         3    1.4200        6    2.4595
                                                3    2.8400
--------------------------------------------------------------------------------
      60   C     core        C     core         3    1.4200        6    2.4595
                                                3    2.8400
--------------------------------------------------------------------------------
      61   C     core        C     core         3    1.4200        6    2.4595
                                                3    2.8400
--------------------------------------------------------------------------------
      62   C     core        C     core         3    1.4200        6    2.4595
                                                3    2.8400
--------------------------------------------------------------------------------
      63   C     core        C     core         3    1.4200        6    2.4595
                                                3    2.8400
--------------------------------------------------------------------------------
      64   C     core        C     core         3    1.4200        6    2.4595
                                                3    2.8400
--------------------------------------------------------------------------------
      65   C     core        C     core         3    1.4200        6    2.4595
                                                3    2.8400
--------------------------------------------------------------------------------
      66   C     core        C     core         3    1.4200        6    2.4595
                                                3    2.8400
--------------------------------------------------------------------------------
      67   C     core        C     core         3    1.4200        6    2.4595
                                                3    2.8400
--------------------------------------------------------------------------------
      68   C     core        C     core         3    1.4200        6    2.4595
                                                3    2.8400
--------------------------------------------------------------------------------
      69   C     core        C     core         3    1.4200        6    2.4595
                                                3    2.8400
--------------------------------------------------------------------------------
      70   C     core        C     core         3    1.4200        6    2.4595
                                                3    2.8400
--------------------------------------------------------------------------------
      71   C     core        C     core         3    1.4200        6    2.4595
                                                3    2.8400
--------------------------------------------------------------------------------
      72   C     core        C     core         3    1.4200        6    2.4595
                                                3    2.8400
--------------------------------------------------------------------------------
      73   C     core        C     core         3    1.4200        6    2.4595
                                                3    2.8400
--------------------------------------------------------------------------------
      74   C     core        C     core         3    1.4200        6    2.4595
                                                3    2.8400
--------------------------------------------------------------------------------
      75   C     core        C     core         3    1.4200        6    2.4595
                                                3    2.8400
--------------------------------------------------------------------------------
      76   C     core        C     core         3    1.4200        6    2.4595
                                                3    2.8400
--------------------------------------------------------------------------------
      77   C     core        C     core         3    1.4200        6    2.4595
                                                3    2.8400
--------------------------------------------------------------------------------
      78   C     core        C     core         3    1.4200        6    2.4595
                                                3    2.8400
--------------------------------------------------------------------------------
      79   C     core        C     core         3    1.4200        6    2.4595
                                                3    2.8400
--------------------------------------------------------------------------------
      80   C     core        C     core         3    1.4200        6    2.4595
                                                3    2.8400
--------------------------------------------------------------------------------
      81   C     core        C     core         3    1.4200        6    2.4595
                                                3    2.8400
--------------------------------------------------------------------------------
      82   C     core        C     core         3    1.4200        6    2.4595
                                                3    2.8400
--------------------------------------------------------------------------------
      83   C     core        C     core         3    1.4200        6    2.4595
                                                3    2.8400
--------------------------------------------------------------------------------
      84   C     core        C     core         3    1.4200        6    2.4595
                                                3    2.8400
--------------------------------------------------------------------------------
      85   C     core        C     core         3    1.4200        6    2.4595
                                                3    2.8400
--------------------------------------------------------------------------------
      86   C     core        C     core         3    1.4200        6    2.4595
                                                3    2.8400
--------------------------------------------------------------------------------
      87   C     core        C     core         3    1.4200        6    2.4595
                                                3    2.8400
--------------------------------------------------------------------------------
      88   C     core        C     core         3    1.4200        6    2.4595
                                                3    2.8400
--------------------------------------------------------------------------------
      89   C     core        C     core         3    1.4200        6    2.4595
                                                3    2.8400
--------------------------------------------------------------------------------
      90   C     core        C     core         3    1.4200        6    2.4595
                                                3    2.8400
--------------------------------------------------------------------------------
      91   C     core        C     core         3    1.4200        6    2.4595
                                                3    2.8400
--------------------------------------------------------------------------------
      92   C     core        C     core         3    1.4200        6    2.4595
                                                3    2.8400
--------------------------------------------------------------------------------
      93   C     core        C     core         3    1.4200        6    2.4595
                                                3    2.8400
--------------------------------------------------------------------------------
      94   C     core        C     core         3    1.4200        6    2.4595
                                                3    2.8400
--------------------------------------------------------------------------------
      95   C     core        C     core         3    1.4200        6    2.4595
                                                3    2.8400
--------------------------------------------------------------------------------
      96   C     core        C     core         3    1.4200        6    2.4595
                                                3    2.8400
--------------------------------------------------------------------------------
      97   C     core        C     core         3    1.4200        6    2.4595
                                                3    2.8400
--------------------------------------------------------------------------------
      98   C     core        C     core         3    1.4200        6    2.4595
                                                3    2.8400
--------------------------------------------------------------------------------
      99   C     core        C     core         3    1.4200        6    2.4595
                                                3    2.8400
--------------------------------------------------------------------------------
     100   C     core        C     core         3    1.4200        6    2.4595
                                                3    2.8400
--------------------------------------------------------------------------------
     101   C     core        C     core         3    1.4200        6    2.4595
                                                3    2.8400
--------------------------------------------------------------------------------
     102   C     core        C     core         3    1.4200        6    2.4595
                                                3    2.8400
--------------------------------------------------------------------------------
     103   C     core        C     core         3    1.4200        6    2.4595
                                                3    2.8400
--------------------------------------------------------------------------------
     104   C     core        C     core         3    1.4200        6    2.4595
                                                3    2.8400
--------------------------------------------------------------------------------
     105   C     core        C     core         3    1.4200        6    2.4595
                                                3    2.8400
--------------------------------------------------------------------------------
     106   C     core        C     core         3    1.4200        6    2.4595
                                                3    2.8400
--------------------------------------------------------------------------------
     107   C     core        C     core         3    1.4200        6    2.4595
                                                3    2.8400
--------------------------------------------------------------------------------
     108   C     core        C     core         3    1.4200        6    2.4595
                                                3    2.8400
--------------------------------------------------------------------------------
     109   C     core        C     core         3    1.4200        6    2.4595
                                                3    2.8400
--------------------------------------------------------------------------------
     110   C     core        C     core         3    1.4200        6    2.4595
                                                3    2.8400
--------------------------------------------------------------------------------
     111   C     core        C     core         3    1.4200        6    2.4595
                                                3    2.8400
--------------------------------------------------------------------------------
     112   C     core        C     core         3    1.4200        6    2.4595
                                                3    2.8400
--------------------------------------------------------------------------------
     113   C     core        C     core         3    1.4200        6    2.4595
                                                3    2.8400
--------------------------------------------------------------------------------
     114   C     core        C     core         3    1.4200        6    2.4595
                                                3    2.8400
--------------------------------------------------------------------------------
     115   C     core        C     core         3    1.4200        6    2.4595
                                                3    2.8400
--------------------------------------------------------------------------------
     116   C     core        C     core         3    1.4200        6    2.4595
                                                3    2.8400
--------------------------------------------------------------------------------
     117   C     core        C     core         3    1.4200        6    2.4595
                                                3    2.8400
--------------------------------------------------------------------------------
     118   C     core        C     core         3    1.4200        6    2.4595
                                                3    2.8400
--------------------------------------------------------------------------------
     119   C     core        C     core         3    1.4200        6    2.4595
                                                3    2.8400
--------------------------------------------------------------------------------
     120   C     core        C     core         3    1.4200        6    2.4595
                                                3    2.8400
--------------------------------------------------------------------------------
     121   C     core        C     core         3    1.4200        6    2.4595
                                                3    2.8400
--------------------------------------------------------------------------------
     122   C     core        C     core         3    1.4200        6    2.4595
                                                3    2.8400
--------------------------------------------------------------------------------
     123   C     core        C     core         3    1.4200        6    2.4595
                                                3    2.8400
--------------------------------------------------------------------------------
     124   C     core        C     core         3    1.4200        6    2.4595
                                                3    2.8400
--------------------------------------------------------------------------------
     125   C     core        C     core         3    1.4200        6    2.4595
                                                3    2.8400
--------------------------------------------------------------------------------
     126   C     core        C     core         3    1.4200        6    2.4595
                                                3    2.8400
--------------------------------------------------------------------------------
     127   C     core        C     core         3    1.4200        6    2.4595
                                                3    2.8400
--------------------------------------------------------------------------------
     128   C     core        C     core         3    1.4200        6    2.4595
                                                3    2.8400
--------------------------------------------------------------------------------


  Brillouin zone sampling points :

--------------------------------------------------------------------------------
  Point number          x          y          z            Weight
--------------------------------------------------------------------------------
        1           0.000000   0.000000   0.000000     1.00000000
--------------------------------------------------------------------------------


********************************************************************************
*  General input information                                                   *
********************************************************************************

  Species output for all configurations : 

--------------------------------------------------------------------------------
  Species    Type    Atomic    Atomic    Charge       Radii (Angs)     Library
                     Number     Mass       (e)     Cova   Ionic  VDW   Symbol
--------------------------------------------------------------------------------
    C        Core        6      12.01   0.000000   0.770  0.000  1.530          
--------------------------------------------------------------------------------


  Lattice summation method               =    Ewald          (3-D)
                                         =    Parry          (2-D)
                                         =    Saunders et al (1-D)
  Accuracy factor for lattice sums       =   12.000


  Analytic derivatives to be used

  Time limit = Infinity

  Maximum range for interatomic potentials =    100000.000000 Angstroms

  Brenner et al 2002 potential to be used with explicit splines for P


********************************************************************************
*  Output for configuration   1                                                *
********************************************************************************


  Components of energy : 

--------------------------------------------------------------------------------
  Interatomic potentials     =           0.00000000 eV    
  Brenner potentials         =        -946.57341952 eV    
  Monopole - monopole (real) =           0.00000000 eV    
  Monopole - monopole (recip)=           0.00000000 eV    
  Monopole - monopole (total)=           0.00000000 eV    
--------------------------------------------------------------------------------
  Total lattice energy       =        -946.57341952 eV    
--------------------------------------------------------------------------------
  Total lattice energy       =          -91329.8653 kJ/(mole unit cells)
--------------------------------------------------------------------------------


  Number of variables =      381

  Maximum number of calculations  =          1000
  Maximum Hessian update interval =            10
  Maximum step size               =   1.000000000
  Maximum parameter tolerance     =   0.000010000
  Maximum function  tolerance     =   0.000010000
  Maximum gradient  tolerance     =   0.001000000
  Maximum gradient  component     =   0.010000000

  Newton-Raphson optimiser to be used

  BFGS hessian update to be used

  Lower half triangular hessian to be used

  Start of bulk optimisation :

  Cycle:      0 Energy:      -946.573420  Gnorm:      0.000008  CPU:    5.724


  **** Optimisation achieved ****


  Final energy =    -946.57341952 eV      
  Final Gnorm  =       0.00000836

  Components of energy : 

--------------------------------------------------------------------------------
  Interatomic potentials     =           0.00000000 eV    
  Brenner potentials         =        -946.57341952 eV    
  Monopole - monopole (real) =           0.00000000 eV    
  Monopole - monopole (recip)=           0.00000000 eV    
  Monopole - monopole (total)=           0.00000000 eV    
--------------------------------------------------------------------------------
  Total lattice energy       =        -946.57341952 eV    
--------------------------------------------------------------------------------
  Total lattice energy       =          -91329.8653 kJ/(mole unit cells)
--------------------------------------------------------------------------------

  Final fractional coordinates of atoms :

--------------------------------------------------------------------------------
   No.  Atomic        x           y          z          Radius
        Label       (Frac)      (Frac)     (Frac)       (Angs) 
--------------------------------------------------------------------------------
     1  C     c     0.041667    0.041667    0.500000    0.000000
     2  C     c     0.083333    0.083333    0.500000    0.000000
     3  C     c     0.166667    0.041667    0.500000    0.000000
     4  C     c     0.208333    0.083333    0.500000    0.000000
     5  C     c     0.291667    0.041667    0.500000    0.000000
     6  C     c     0.333333    0.083333    0.500000    0.000000
     7  C     c     0.416667    0.041667    0.500000    0.000000
     8  C     c     0.458333    0.083333    0.500000    0.000000
     9  C     c     0.541667    0.041667    0.500000    0.000000
    10  C     c     0.583333    0.083333    0.500000    0.000000
    11  C     c     0.666667    0.041667    0.500000    0.000000
    12  C     c     0.708333    0.083333    0.500000    0.000000
    13  C     c     0.791667    0.041667    0.500000    0.000000
    14  C     c     0.833333    0.083333    0.500000    0.000000
    15  C     c     0.916667    0.041667    0.500000    0.000000
    16  C     c     0.958333    0.083333    0.500000    0.000000
    17  C     c     0.041667    0.166667    0.500000    0.000000
    18  C     c     0.083333    0.208333    0.500000    0.000000
    19  C     c     0.166667    0.166667    0.500000    0.000000
    20  C     c     0.208333    0.208333    0.500000    0.000000
    21  C     c     0.291667    0.166667    0.500000    0.000000
    22  C     c     0.333333    0.208333    0.500000    0.000000
    23  C     c     0.416667    0.166667    0.500000    0.000000
    24  C     c     0.458333    0.208333    0.500000    0.000000
    25  C     c     0.541667    0.166667    0.500000    0.000000
    26  C     c     0.583333    0.208333    0.500000    0.000000
    27  C     c     0.666667    0.166667    0.500000    0.000000
    28  C     c     0.708333    0.208333    0.500000    0.000000
    29  C     c     0.791667    0.166667    0.500000    0.000000
    30  C     c     0.833333    0.208333    0.500000    0.000000
    31  C     c     0.916667    0.166667    0.500000    0.000000
    32  C     c     0.958333    0.208333    0.500000    0.000000
    33  C     c     0.041667    0.291667    0.500000    0.000000
    34  C     c     0.083333    0.333333    0.500000    0.000000
    35  C     c     0.166667    0.291667    0.500000    0.000000
    36  C     c     0.208333    0.333333    0.500000    0.000000
    37  C     c     0.291667    0.291667    0.500000    0.000000
    38  C     c     0.333333    0.333333    0.500000    0.000000
    39  C     c     0.416667    0.291667    0.500000    0.000000
    40  C     c     0.458333    0.333333    0.500000    0.000000
    41  C     c     0.541667    0.291667    0.500000    0.000000
    42  C     c     0.583333    0.333333    0.500000    0.000000
    43  C     c     0.666667    0.291667    0.500000    0.000000
    44  C     c     0.708333    0.333333    0.500000    0.000000
    45  C     c     0.791667    0.291667    0.500000    0.000000
    46  C     c     0.833333    0.333333    0.500000    0.000000
    47  C     c     0.916667    0.291667    0.500000    0.000000
    48  C     c     0.958333    0.333333    0.500000    0.000000
    49  C     c     0.041667    0.416667    0.500000    0.000000
    50  C     c     0.083333    0.458333    0.500000    0.000000
    51  C     c     0.166667    0.416667    0.500000    0.000000
    52  C     c     0.208333    0.458333    0.500000    0.000000
    53  C     c     0.291667    0.416667    0.500000    0.000000
    54  C     c     0.333333    0.458333    0.500000    0.000000
    55  C     c     0.416667    0.416667    0.500000    0.000000
    56  C     c     0.458333    0.458333    0.500000    0.000000
    57  C     c     0.541667    0.416667    0.500000    0.000000
    58  C     c     0.583333    0.458333    0.500000    0.000000
    59  C     c     0.666667    0.416667    0.500000    0.000000
    60  C     c     0.708333    0.458333    0.500000    0.000000
    61  C     c     0.791667    0.416667    0.500000    0.000000
    62  C     c     0.833333    0.458333    0.500000    0.000000
    63  C     c     0.916667    0.416667    0.500000    0.000000
    64  C     c     0.958333    0.458333    0.500000    0.000000
    65  C     c     0.041667    0.541667    0.500000    0.000000
    66  C     c     0.083333    0.583333    0.500000    0.000000
    67  C     c     0.166667    0.541667    0.500000    0.000000
    68  C     c     0.208333    0.583333    0.500000    0.000000
    69  C     c     0.291667    0.541667    0.500000    0.000000
    70  C     c     0.333333    0.583333    0.500000    0.000000
    71  C     c     0.416667    0.541667    0.500000    0.000000
    72  C     c     0.458333    0.583333    0.500000    0.000000
    73  C     c     0.541667    0.541667    0.500000    0.000000
    74  C     c     0.583333    0.583333    0.500000    0.000000
    75  C     c     0.666667    0.541667    0.500000    0.000000
    76  C     c     0.708333    0.583333    0.500000    0.000000
    77  C     c     0.791667    0.541667    0.500000    0.000000
    78  C     c     0.833333    0.583333    0.500000    0.000000
    79  C     c     0.916667    0.541667    0.500000    0.000000
    80  C     c     0.958333    0.583333    0.500000    0.000000
    81  C     c     0.041667    0.666667    0.500000    0.000000
    82  C     c     0.083333    0.708333    0.500000    0.000000
    83  C     c     0.166667    0.666667    0.500000    0.000000
    84  C     c     0.208333    0.708333    0.500000    0.000000
    85  C     c     0.291667    0.666667    0.500000    0.000000
    86  C     c     0.333333    0.708333    0.500000    0.000000
    87  C     c     0.416667    0.666667    0.500000    0.000000
    88  C     c     0.458333    0.708333    0.500000    0.000000
    89  C     c     0.541667    0.666667    0.500000    0.000000
    90  C     c     0.583333    0.708333    0.500000    0.000000
    91  C     c     0.666667    0.666667    0.500000    0.000000
    92  C     c     0.708333    0.708333    0.500000    0.000000
    93  C     c     0.791667    0.666667    0.500000    0.000000
    94  C     c     0.833333    0.708333    0.500000    0.000000
    95  C     c     0.916667    0.666667    0.500000    0.000000
    96  C     c     0.958333    0.708333    0.500000    0.000000
    97  C     c     0.041667    0.791667    0.500000    0.000000
    98  C     c     0.083333    0.833333    0.500000    0.000000
    99  C     c     0.166667    0.791667    0.500000    0.000000
   100  C     c     0.208333    0.833333    0.500000    0.000000
   101  C     c     0.291667    0.791667    0.500000    0.000000
   102  C     c     0.333333    0.833333    0.500000    0.000000
   103  C     c     0.416667    0.791667    0.500000    0.000000
   104  C     c     0.458333    0.833333    0.500000    0.000000
   105  C     c     0.541667    0.791667    0.500000    0.000000
   106  C     c     0.583333    0.833333    0.500000    0.000000
   107  C     c     0.666667    0.791667    0.500000    0.000000
   108  C     c     0.708333    0.833333    0.500000    0.000000
   109  C     c     0.791667    0.791667    0.500000    0.000000
   110  C     c     0.833333    0.833333    0.500000    0.000000
   111  C     c     0.916667    0.791667    0.500000    0.000000
   112  C     c     0.958333    0.833333    0.500000    0.000000
   113  C     c     0.041667    0.916667    0.500000    0.000000
   114  C     c     0.083333    0.958333    0.500000    0.000000
   115  C     c     0.166667    0.916667    0.500000    0.000000
   116  C     c     0.208333    0.958333    0.500000    0.000000
   117  C     c     0.291667    0.916667    0.500000    0.000000
   118  C     c     0.333333    0.958333    0.500000    0.000000
   119  C     c     0.416667    0.916667    0.500000    0.000000
   120  C     c     0.458333    0.958333    0.500000    0.000000
   121  C     c     0.541667    0.916667    0.500000    0.000000
   122  C     c     0.583333    0.958333    0.500000    0.000000
   123  C     c     0.666667    0.916667    0.500000    0.000000
   124  C     c     0.708333    0.958333    0.500000    0.000000
   125  C     c     0.791667    0.916667    0.500000    0.000000
   126  C     c     0.833333    0.958333    0.500000    0.000000
   127  C     c     0.916667    0.916667    0.500000    0.000000
   128  C     c     0.958333    0.958333    0.500000    0.000000
--------------------------------------------------------------------------------

  Final internal derivatives :

--------------------------------------------------------------------------------
   No.  Atomic          a             b             c           Radius
        Label          (eV)          (eV)          (eV)        (eV/Angs)
--------------------------------------------------------------------------------
      1 C     c       0.000000      0.000000      0.000000      0.000000
      2 C     c       0.000091      0.000091      0.000000      0.000000
      3 C     c      -0.000086      0.000537      0.000000      0.000000
      4 C     c       0.000022      0.000076      0.000000      0.000000
      5 C     c      -0.000086      0.000537      0.000000      0.000000
      6 C     c       0.000022      0.000076      0.000000      0.000000
      7 C     c      -0.000086      0.000537      0.000000      0.000000
      8 C     c       0.000022      0.000076      0.000000      0.000000
      9 C     c      -0.000086      0.000537      0.000000      0.000000
     10 C     c       0.000022      0.000076      0.000000      0.000000
     11 C     c      -0.000086      0.000537      0.000000      0.000000
     12 C     c       0.000022      0.000076      0.000000      0.000000
     13 C     c      -0.000078      0.000560      0.000000      0.000000
     14 C     c      -0.000560      0.000078      0.000000      0.000000
     15 C     c       0.000560     -0.000078      0.000000      0.000000
     16 C     c       0.000078     -0.000560      0.000000      0.000000
     17 C     c       0.000537     -0.000086      0.000000      0.000000
     18 C     c       0.000076      0.000022      0.000000      0.000000
     19 C     c      -0.000037     -0.000037      0.000000      0.000000
     20 C     c       0.000037      0.000037      0.000000      0.000000
     21 C     c      -0.000037     -0.000037      0.000000      0.000000
     22 C     c       0.000037      0.000037      0.000000      0.000000
     23 C     c      -0.000037     -0.000037      0.000000      0.000000
     24 C     c       0.000037      0.000037      0.000000      0.000000
     25 C     c      -0.000037     -0.000037      0.000000      0.000000
     26 C     c       0.000037      0.000037      0.000000      0.000000
     27 C     c      -0.000037     -0.000037      0.000000      0.000000
     28 C     c       0.000037      0.000037      0.000000      0.000000
     29 C     c      -0.000084     -0.000045      0.000000      0.000000
     30 C     c       0.000045      0.000084      0.000000      0.000000
     31 C     c      -0.000078      0.000560      0.000000      0.000000
     32 C     c      -0.000560      0.000078      0.000000      0.000000
     33 C     c       0.000537     -0.000086      0.000000      0.000000
     34 C     c       0.000076      0.000022      0.000000      0.000000
     35 C     c      -0.000037     -0.000037      0.000000      0.000000
     36 C     c       0.000037      0.000037      0.000000      0.000000
     37 C     c      -0.000037     -0.000037      0.000000      0.000000
     38 C     c       0.000037      0.000037      0.000000      0.000000
     39 C     c      -0.000037     -0.000037      0.000000      0.000000
     40 C     c       0.000037      0.000037      0.000000      0.000000
     41 C     c      -0.000037     -0.000037      0.000000      0.000000
     42 C     c       0.000037      0.000037      0.000000      0.000000
     43 C     c      -0.000037     -0.000037      0.000000      0.000000
     44 C     c       0.000037      0.000037      0.000000      0.000000
     45 C     c      -0.000037     -0.000037      0.000000      0.000000
     46 C     c       0.000037      0.000037      0.000000      0.000000
     47 C     c      -0.000076     -0.000022      0.000000      0.000000
     48 C     c      -0.000537      0.000086      0.000000      0.000000
     49 C     c       0.000537     -0.000086      0.000000      0.000000
     50 C     c       0.000076      0.000022      0.000000      0.000000
     51 C     c      -0.000037     -0.000037      0.000000      0.000000
     52 C     c       0.000037      0.000037      0.000000      0.000000
     53 C     c      -0.000037     -0.000037      0.000000      0.000000
     54 C     c       0.000037      0.000037      0.000000      0.000000
     55 C     c      -0.000037     -0.000037      0.000000      0.000000
     56 C     c       0.000037      0.000037      0.000000      0.000000
     57 C     c      -0.000037     -0.000037      0.000000      0.000000
     58 C     c       0.000037      0.000037      0.000000      0.000000
     59 C     c      -0.000037     -0.000037      0.000000      0.000000
     60 C     c       0.000037      0.000037      0.000000      0.000000
     61 C     c      -0.000037     -0.000037      0.000000      0.000000
     62 C     c       0.000037      0.000037      0.000000      0.000000
     63 C     c      -0.000076     -0.000022      0.000000      0.000000
     64 C     c      -0.000537      0.000086      0.000000      0.000000
     65 C     c       0.000537     -0.000086      0.000000      0.000000
     66 C     c       0.000076      0.000022      0.000000      0.000000
     67 C     c      -0.000037     -0.000037      0.000000      0.000000
     68 C     c       0.000037      0.000037      0.000000      0.000000
     69 C     c      -0.000037     -0.000037      0.000000      0.000000
     70 C     c       0.000037      0.000037      0.000000      0.000000
     71 C     c      -0.000037     -0.000037      0.000000      0.000000
     72 C     c       0.000037      0.000037      0.000000      0.000000
     73 C     c      -0.000037     -0.000037      0.000000      0.000000
     74 C     c       0.000037      0.000037      0.000000      0.000000
     75 C     c      -0.000037     -0.000037      0.000000      0.000000
     76 C     c       0.000037      0.000037      0.000000      0.000000
     77 C     c      -0.000037     -0.000037      0.000000      0.000000
     78 C     c       0.000037      0.000037      0.000000      0.000000
     79 C     c      -0.000076     -0.000022      0.000000      0.000000
     80 C     c      -0.000537      0.000086      0.000000      0.000000
     81 C     c       0.000537     -0.000086      0.000000      0.000000
     82 C     c       0.000076      0.000022      0.000000      0.000000
     83 C     c      -0.000037     -0.000037      0.000000      0.000000
     84 C     c       0.000037      0.000037      0.000000      0.000000
     85 C     c      -0.000037     -0.000037      0.000000      0.000000
     86 C     c       0.000037      0.000037      0.000000      0.000000
     87 C     c      -0.000037     -0.000037      0.000000      0.000000
     88 C     c       0.000037      0.000037      0.000000      0.000000
     89 C     c      -0.000037     -0.000037      0.000000      0.000000
     90 C     c       0.000037      0.000037      0.000000      0.000000
     91 C     c      -0.000037     -0.000037      0.000000      0.000000
     92 C     c       0.000037      0.000037      0.000000      0.000000
     93 C     c      -0.000037     -0.000037      0.000000      0.000000
     94 C     c       0.000037      0.000037      0.000000      0.000000
     95 C     c      -0.000076     -0.000022      0.000000      0.000000
     96 C     c      -0.000537      0.000086      0.000000      0.000000
     97 C     c       0.000560     -0.000078      0.000000      0.000000
     98 C     c       0.000078     -0.000560      0.000000      0.000000
     99 C     c      -0.000045     -0.000084      0.000000      0.000000
    100 C     c       0.000084      0.000045      0.000000      0.000000
    101 C     c      -0.000037     -0.000037      0.000000      0.000000
    102 C     c       0.000037      0.000037      0.000000      0.000000
    103 C     c      -0.000037     -0.000037      0.000000      0.000000
    104 C     c       0.000037      0.000037      0.000000      0.000000
    105 C     c      -0.000037     -0.000037      0.000000      0.000000
    106 C     c       0.000037      0.000037      0.000000      0.000000
    107 C     c      -0.000037     -0.000037      0.000000      0.000000
    108 C     c       0.000037      0.000037      0.000000      0.000000
    109 C     c      -0.000037     -0.000037      0.000000      0.000000
    110 C     c       0.000037      0.000037      0.000000      0.000000
    111 C     c      -0.000076     -0.000022      0.000000      0.000000
    112 C     c      -0.000537      0.000086      0.000000      0.000000
    113 C     c      -0.000078      0.000560      0.000000      0.000000
    114 C     c      -0.000560      0.000078      0.000000      0.000000
    115 C     c       0.000560     -0.000078      0.000000      0.000000
    116 C     c       0.000078     -0.000560      0.000000      0.000000
    117 C     c      -0.000022     -0.000076      0.000000      0.000000
    118 C     c       0.000086     -0.000537      0.000000      0.000000
    119 C     c      -0.000022     -0.000076      0.000000      0.000000
    120 C     c       0.000086     -0.000537      0.000000      0.000000
    121 C     c      -0.000022     -0.000076      0.000000      0.000000
    122 C     c       0.000086     -0.000537      0.000000      0.000000
    123 C     c      -0.000022     -0.000076      0.000000      0.000000
    124 C     c       0.000086     -0.000537      0.000000      0.000000
    125 C     c      -0.000022     -0.000076      0.000000      0.000000
    126 C     c       0.000086     -0.000537      0.000000      0.000000
    127 C     c      -0.000091     -0.000091      0.000000      0.000000
    128 C     c       0.000091      0.000091      0.000000      0.000000
--------------------------------------------------------------------------------
  Maximum abs         0.000560      0.000560      0.000000      0.000000
--------------------------------------------------------------------------------


  Distance calculation :


  Cutoff for distances  =      3.000000 Angstroms

--------------------------------------------------------------------------------
  Asymmetric unit site  Full lattice sites    No.  Distance      No.  Distance
      No.   At.No.            At.No.                (Angs)             (Angs) 
--------------------------------------------------------------------------------
       1   C     core        C     core         3    1.4200        6    2.4595
                                                3    2.8400
--------------------------------------------------------------------------------
       2   C     core        C     core         3    1.4200        6    2.4595
                                                3    2.8400
--------------------------------------------------------------------------------
       3   C     core        C     core         3    1.4200        6    2.4595
                                                3    2.8400
--------------------------------------------------------------------------------
       4   C     core        C     core         3    1.4200        6    2.4595
                                                3    2.8400
--------------------------------------------------------------------------------
       5   C     core        C     core         3    1.4200        6    2.4595
                                                3    2.8400
--------------------------------------------------------------------------------
       6   C     core        C     core         3    1.4200        6    2.4595
                                                3    2.8400
--------------------------------------------------------------------------------
       7   C     core        C     core         3    1.4200        6    2.4595
                                                3    2.8400
--------------------------------------------------------------------------------
       8   C     core        C     core         3    1.4200        6    2.4595
                                                3    2.8400
--------------------------------------------------------------------------------
       9   C     core        C     core         3    1.4200        6    2.4595
                                                3    2.8400
--------------------------------------------------------------------------------
      10   C     core        C     core         3    1.4200        6    2.4595
                                                3    2.8400
--------------------------------------------------------------------------------
      11   C     core        C     core         3    1.4200        6    2.4595
                                                3    2.8400
--------------------------------------------------------------------------------
      12   C     core        C     core         3    1.4200        6    2.4595
                                                3    2.8400
--------------------------------------------------------------------------------
      13   C     core        C     core         3    1.4200        6    2.4595
                                                3    2.8400
--------------------------------------------------------------------------------
      14   C     core        C     core         3    1.4200        6    2.4595
                                                3    2.8400
--------------------------------------------------------------------------------
      15   C     core        C     core         3    1.4200        6    2.4595
                                                3    2.8400
--------------------------------------------------------------------------------
      16   C     core        C     core         3    1.4200        6    2.4595
                                                3    2.8400
--------------------------------------------------------------------------------
      17   C     core        C     core         3    1.4200        6    2.4595
                                                3    2.8400
--------------------------------------------------------------------------------
      18   C     core        C     core         3    1.4200        6    2.4595
                                                3    2.8400
--------------------------------------------------------------------------------
      19   C     core        C     core         3    1.4200        6    2.4595
                                                3    2.8400
--------------------------------------------------------------------------------
      20   C     core        C     core         3    1.4200        6    2.4595
                                                3    2.8400
--------------------------------------------------------------------------------
      21   C     core        C     core         3    1.4200        6    2.4595
                                                3    2.8400
--------------------------------------------------------------------------------
      22   C     core        C     core         3    1.4200        6    2.4595
                                                3    2.8400
--------------------------------------------------------------------------------
      23   C     core        C     core         3    1.4200        6    2.4595
                                                3    2.8400
--------------------------------------------------------------------------------
      24   C     core        C     core         3    1.4200        6    2.4595
                                                3    2.8400
--------------------------------------------------------------------------------
      25   C     core        C     core         3    1.4200        6    2.4595
                                                3    2.8400
--------------------------------------------------------------------------------
      26   C     core        C     core         3    1.4200        6    2.4595
                                                3    2.8400
--------------------------------------------------------------------------------
      27   C     core        C     core         3    1.4200        6    2.4595
                                                3    2.8400
--------------------------------------------------------------------------------
      28   C     core        C     core         3    1.4200        6    2.4595
                                                3    2.8400
--------------------------------------------------------------------------------
      29   C     core        C     core         3    1.4200        6    2.4595
                                                3    2.8400
--------------------------------------------------------------------------------
      30   C     core        C     core         3    1.4200        6    2.4595
                                                3    2.8400
--------------------------------------------------------------------------------
      31   C     core        C     core         3    1.4200        6    2.4595
                                                3    2.8400
--------------------------------------------------------------------------------
      32   C     core        C     core         3    1.4200        6    2.4595
                                                3    2.8400
--------------------------------------------------------------------------------
      33   C     core        C     core         3    1.4200        6    2.4595
                                                3    2.8400
--------------------------------------------------------------------------------
      34   C     core        C     core         3    1.4200        6    2.4595
                                                3    2.8400
--------------------------------------------------------------------------------
      35   C     core        C     core         3    1.4200        6    2.4595
                                                3    2.8400
--------------------------------------------------------------------------------
      36   C     core        C     core         3    1.4200        6    2.4595
                                                3    2.8400
--------------------------------------------------------------------------------
      37   C     core        C     core         3    1.4200        6    2.4595
                                                3    2.8400
--------------------------------------------------------------------------------
      38   C     core        C     core         3    1.4200        6    2.4595
                                                3    2.8400
--------------------------------------------------------------------------------
      39   C     core        C     core         3    1.4200        6    2.4595
                                                3    2.8400
--------------------------------------------------------------------------------
      40   C     core        C     core         3    1.4200        6    2.4595
                                                3    2.8400
--------------------------------------------------------------------------------
      41   C     core        C     core         3    1.4200        6    2.4595
                                                3    2.8400
--------------------------------------------------------------------------------
      42   C     core        C     core         3    1.4200        6    2.4595
                                                3    2.8400
--------------------------------------------------------------------------------
      43   C     core        C     core         3    1.4200        6    2.4595
                                                3    2.8400
--------------------------------------------------------------------------------
      44   C     core        C     core         3    1.4200        6    2.4595
                                                3    2.8400
--------------------------------------------------------------------------------
      45   C     core        C     core         3    1.4200        6    2.4595
                                                3    2.8400
--------------------------------------------------------------------------------
      46   C     core        C     core         3    1.4200        6    2.4595
                                                3    2.8400
--------------------------------------------------------------------------------
      47   C     core        C     core         3    1.4200        6    2.4595
                                                3    2.8400
--------------------------------------------------------------------------------
      48   C     core        C     core         3    1.4200        6    2.4595
                                                3    2.8400
--------------------------------------------------------------------------------
      49   C     core        C     core         3    1.4200        6    2.4595
                                                3    2.8400
--------------------------------------------------------------------------------
      50   C     core        C     core         3    1.4200        6    2.4595
                                                3    2.8400
--------------------------------------------------------------------------------
      51   C     core        C     core         3    1.4200        6    2.4595
                                                3    2.8400
--------------------------------------------------------------------------------
      52   C     core        C     core         3    1.4200        6    2.4595
                                                3    2.8400
--------------------------------------------------------------------------------
      53   C     core        C     core         3    1.4200        6    2.4595
                                                3    2.8400
--------------------------------------------------------------------------------
      54   C     core        C     core         3    1.4200        6    2.4595
                                                3    2.8400
--------------------------------------------------------------------------------
      55   C     core        C     core         3    1.4200        6    2.4595
                                                3    2.8400
--------------------------------------------------------------------------------
      56   C     core        C     core         3    1.4200        6    2.4595
                                                3    2.8400
--------------------------------------------------------------------------------
      57   C     core        C     core         3    1.4200        6    2.4595
                                                3    2.8400
--------------------------------------------------------------------------------
      58   C     core        C     core         3    1.4200        6    2.4595
                                                3    2.8400
--------------------------------------------------------------------------------
      59   C     core        C     core         3    1.4200        6    2.4595
                                                3    2.8400
--------------------------------------------------------------------------------
      60   C     core        C     core         3    1.4200        6    2.4595
                                                3    2.8400
--------------------------------------------------------------------------------
      61   C     core        C     core         3    1.4200        6    2.4595
                                                3    2.8400
--------------------------------------------------------------------------------
      62   C     core        C     core         3    1.4200        6    2.4595
                                                3    2.8400
--------------------------------------------------------------------------------
      63   C     core        C     core         3    1.4200        6    2.4595
                                                3    2.8400
--------------------------------------------------------------------------------
      64   C     core        C     core         3    1.4200        6    2.4595
                                                3    2.8400
--------------------------------------------------------------------------------
      65   C     core        C     core         3    1.4200        6    2.4595
                                                3    2.8400
--------------------------------------------------------------------------------
      66   C     core        C     core         3    1.4200        6    2.4595
                                                3    2.8400
--------------------------------------------------------------------------------
      67   C     core        C     core         3    1.4200        6    2.4595
                                                3    2.8400
--------------------------------------------------------------------------------
      68   C     core        C     core         3    1.4200        6    2.4595
                                                3    2.8400
[...]
   0.000000   0.000000   0.000000   0.000000   0.000000   0.000000   0.000000   0.000000   0.000000   0.000000   0.000000   0.000000
   0.000000   0.000000   0.000000   0.000000   0.000000   0.000000   0.000000   0.000000   0.000000   0.000000   0.000000   0.000000
   0.000000   0.000000   0.000000   0.000000   0.000000   0.000000   0.000000   0.000000   0.000000   0.000000   0.000000   0.000000
  -0.000000  -0.000000   0.000000  -0.029215   0.133539   0.000000  -0.000000  -0.000000   0.000000   0.000000   0.000000   0.000000
   0.000000   0.000000   0.000000   0.000000   0.000000   0.000000   0.000000   0.000000   0.000000   0.000000   0.000000   0.000000
   0.000000   0.000000   0.000000   0.000000   0.000000   0.000000   0.000000   0.000000   0.000000   0.000000   0.000000   0.000000
   0.000000   0.000000   0.000000   0.000000   0.000000   0.000000   0.000000  -0.000000   0.000000  -0.130257  -0.075204   0.000000
  -0.993992  -1.225717   0.000000  -0.130257  -0.191876   0.000000  -0.000000  -0.000000   0.000000   0.000000   0.000000   0.000000
   0.000000   0.000000   0.000000   0.000000   0.000000   0.000000   0.000000   0.000000   0.000000   0.000000   0.000000   0.000000
   0.000000   0.000000   0.000000   0.000000   0.000000   0.000000   0.000000   0.000000   0.000000   0.000000   0.000000   0.000000
   0.000000   0.000000   0.000000  -0.130257   0.075204   0.000000  -3.116995  -0.000000   0.000000   5.684437  -0.000000   0.000000
  -0.000000   0.000000   0.000000   0.000000   0.000000   0.000000   0.000000   0.000000   0.000000   0.000000   0.000000   0.000000
   0.000000   0.000000   0.000000   0.000000   0.000000   0.000000   0.000000   0.000000   0.000000   0.000000   0.000000   0.000000
   0.000000   0.000000   0.000000   0.000000   0.000000   0.000000   0.000000   0.000000   0.000000   0.000000   0.000000   0.000000
  -0.000000  -0.000000   0.000000   0.133540  -0.163937   0.000000   1.225718  -2.409329   0.000000  -0.075204  -0.062896   0.000000
   0.000000   0.000000   0.000000   0.000000   0.000000   0.000000   0.000000   0.000000   0.000000   0.000000   0.000000   0.000000
   0.000000   0.000000   0.000000   0.000000   0.000000   0.000000   0.000000   0.000000   0.000000   0.000000   0.000000   0.000000
   0.000000   0.000000   0.000000   0.000000   0.000000   0.000000   0.000000   0.000000   0.000000   0.000000   0.000000   0.000000
   0.000000  -0.000000   0.000000   0.000000   0.000000   0.000000   0.000000   0.000000   0.000000   0.000000   0.000000   0.000000
   0.000000   0.000000   0.000000   0.000000   0.000000   0.000000   0.000000   0.000000   0.000000   0.000000   0.000000   0.000000
   0.000000   0.000000   0.000000   0.000000   0.000000   0.000000   0.000000   0.000000   0.000000   0.000000   0.000000   0.000000
   0.000000   0.000000   0.000000   0.000000   0.000000   0.000000   0.000000   0.000000   0.000000   0.000000   0.000000   0.000000
   0.000000   0.000000   0.000000   0.000000   0.000000   0.000000   0.000000   0.000000   0.000000   0.000000   0.000000   0.000000
   0.000000   0.000000   0.000000   0.000000   0.000000   0.000000   0.000000   0.000000   0.000000   0.000000   0.000000   0.000000
   0.000000   0.000000   0.000000   0.000000   0.000000   0.000000   0.000000   0.000000   0.000000   0.000000   0.000000   0.000000
   0.000000   0.000000   0.000000   0.000000   0.000000   0.000000   0.000000   0.000000   0.000000   0.000000   0.000000   0.000000
   0.000000   0.000000   0.000000   0.000000   0.000000   0.000000   0.000000   0.000000   0.000000   0.000000   0.000000   0.000000
   0.000000   0.000000   0.000000   0.000000   0.000000   0.000000   0.000000   0.000000   0.000000   0.000000   0.000000   0.000000
   0.000000   0.000000   0.000000   0.000000   0.000000   0.000000   0.000000   0.000000   0.000000   0.000000   0.000000   0.000000
   0.000000   0.000000   0.000000   0.000000   0.000000   0.000000   0.000000   0.000000   0.000000   0.000000   0.000000   0.000000
   0.000000   0.000000   0.000000   0.000000   0.000000   0.000000   0.000000   0.000000   0.000000   0.000000   0.000000   0.000000
   0.000000   0.000000   0.000000   0.000000   0.000000   0.000000   0.000000   0.000000   0.000000   0.000000   0.000000   0.000000
   0.000000   0.000000   0.000000   0.000000   0.000000   0.000000   0.000000   0.000000   0.000000   0.000000   0.000000   0.000000
   0.000000   0.000000   0.000000   0.000000   0.000000   0.000000   0.000000   0.000000   0.000000   0.000000   0.000000   0.000000
   0.000000   0.000000   0.000000   0.000000   0.000000   0.000000   0.000000   0.000000   0.000000   0.000000   0.000000   0.000000
   0.000000   0.000000   0.000000  -0.133540  -0.163937   0.000000   0.000000   0.000000   0.000000   0.000000   0.000000   0.000000
   0.000000   0.000000   0.000000   0.000000   0.000000   0.000000   0.000000   0.000000   0.000000   0.000000   0.000000   0.000000
   0.000000   0.000000   0.000000   0.000000   0.000000   0.000000   0.000000   0.000000   0.000000   0.000000   0.000000   0.000000
   0.000000   0.000000   0.000000   0.000000   0.000000   0.000000  -0.000000  -0.000000   0.000000   0.191876  -0.062896   0.000000
  -1.225718  -2.409329   0.000000   0.075204  -0.062896   0.000000  -0.000000  -0.000000   0.000000   0.000000   0.000000   0.000000
   0.000000   0.000000   0.000000   0.000000   0.000000   0.000000   0.000000   0.000000   0.000000   0.000000   0.000000   0.000000
   0.000000   0.000000   0.000000   0.000000   0.000000   0.000000   0.000000   0.000000   0.000000   0.000000   0.000000   0.000000
   0.000000  -0.000000   0.000000  -0.191876  -0.062896   0.000000  -0.000000  -0.286323   0.000000  -0.000000   5.684437   0.000000
   0.000000   0.000000  -0.019446   0.000000   0.000000   0.000000   0.000000   0.000000   0.000000   0.000000   0.000000   0.000000
   0.000000   0.000000   0.000000   0.000000   0.000000   0.000000   0.000000   0.000000   0.000000   0.000000   0.000000   0.000000
   0.000000   0.000000   0.000000   0.000000   0.000000   0.000000   0.000000   0.000000   0.000000   0.000000   0.000000   0.000000
   0.000000   0.000000  -0.019445   0.000000   0.000000   0.085296   0.000000   0.000000  -0.569133   0.000000   0.000000   0.085296
   0.000000   0.000000   0.000000   0.000000   0.000000   0.000000   0.000000   0.000000   0.000000   0.000000   0.000000   0.000000
   0.000000   0.000000   0.000000   0.000000   0.000000   0.000000   0.000000   0.000000   0.000000   0.000000   0.000000   0.000000
   0.000000   0.000000   0.000000   0.000000   0.000000   0.000000   0.000000   0.000000   0.000000   0.000000   0.000000   0.000000
   0.000000   0.000000   0.009723   0.000000   0.000000   0.000000   0.000000   0.000000   0.009723   0.000000   0.000000   0.000000
   0.000000   0.000000   0.000000   0.000000   0.000000   0.000000   0.000000   0.000000   0.000000   0.000000   0.000000   0.000000
   0.000000   0.000000   0.000000   0.000000   0.000000   0.000000   0.000000   0.000000   0.000000   0.000000   0.000000   0.000000
   0.000000   0.000000   0.000000   0.000000   0.000000   0.000000   0.000000   0.000000   0.000000   0.000000   0.000000   0.000000
   0.000000   0.000000   0.000000   0.000000   0.000000   0.000000   0.000000   0.000000   0.000000   0.000000   0.000000   0.000000
   0.000000   0.000000   0.000000   0.000000   0.000000   0.000000   0.000000   0.000000   0.000000   0.000000   0.000000   0.000000
   0.000000   0.000000   0.000000   0.000000   0.000000   0.000000   0.000000   0.000000   0.000000   0.000000   0.000000   0.000000
   0.000000   0.000000   0.000000   0.000000   0.000000   0.000000   0.000000   0.000000   0.000000   0.000000   0.000000   0.000000
   0.000000   0.000000   0.000000   0.000000   0.000000   0.000000   0.000000   0.000000   0.000000   0.000000   0.000000   0.000000
   0.000000   0.000000   0.000000   0.000000   0.000000   0.000000   0.000000   0.000000   0.000000   0.000000   0.000000   0.000000
   0.000000   0.000000   0.000000   0.000000   0.000000   0.000000   0.000000   0.000000   0.000000   0.000000   0.000000   0.000000
   0.000000   0.000000   0.000000   0.000000   0.000000   0.000000   0.000000   0.000000   0.000000   0.000000   0.000000   0.000000
   0.000000   0.000000   0.000000   0.000000   0.000000   0.000000   0.000000   0.000000   0.000000   0.000000   0.000000   0.000000
   0.000000   0.000000   0.000000   0.000000   0.000000   0.000000   0.000000   0.000000   0.000000   0.000000   0.000000   0.000000
   0.000000   0.000000   0.000000   0.000000   0.000000   0.000000   0.000000   0.000000   0.000000   0.000000   0.000000   0.000000
   0.000000   0.000000   0.000000   0.000000   0.000000   0.000000   0.000000   0.000000   0.000000   0.000000   0.000000   0.000000
   0.000000   0.000000   0.000000   0.000000   0.000000   0.000000   0.000000   0.000000   0.000000   0.000000   0.000000   0.000000
   0.000000   0.000000  -0.019445   0.000000   0.000000   0.085296   0.000000   0.000000   0.009723   0.000000   0.000000   0.000000
   0.000000   0.000000   0.000000   0.000000   0.000000   0.000000   0.000000   0.000000   0.000000   0.000000   0.000000   0.000000
   0.000000   0.000000   0.000000   0.000000   0.000000   0.000000   0.000000   0.000000   0.000000   0.000000   0.000000   0.000000
   0.000000   0.000000   0.000000   0.000000   0.000000   0.000000   0.000000   0.000000   0.009723   0.000000   0.000000   0.085296
   0.000000   0.000000  -0.569133   0.000000   0.000000   0.085296   0.000000   0.000000   0.009723   0.000000   0.000000   0.000000
   0.000000   0.000000   0.000000   0.000000   0.000000   0.000000   0.000000   0.000000   0.000000   0.000000   0.000000   0.000000
   0.000000   0.000000   0.000000   0.000000   0.000000   0.000000   0.000000   0.000000   0.000000   0.000000   0.000000   0.000000
   0.000000   0.000000   0.009723   0.000000   0.000000   0.085296   0.000000   0.000000  -0.569134   0.000000   0.000000   1.195622

  Frequencies (cm-1) [NB: Negative implies an imaginary mode]:

   -0.00    0.00    0.00   37.72   37.72   37.72   37.72   37.72   37.72
  108.66  108.66  108.66  108.66  108.66  108.66  143.51  143.51  143.51
  143.51  143.51  143.51  204.29  204.29  204.29  204.29  204.29  204.29
  232.11  232.11  232.11  232.11  232.11  232.11  232.11  232.11  232.11
  232.11  232.11  232.11  286.79  286.79  286.79  286.79  286.79  286.79
  352.10  352.10  352.10  352.10  352.10  352.10  365.37  365.37  365.37
  365.37  365.37  365.37  366.28  366.28  366.28  366.28  366.28  366.28
  366.28  366.28  366.28  366.28  366.28  366.28  376.56  376.56  376.56
  376.56  376.56  376.56  379.42  379.42  379.42  379.42  379.42  379.42
  380.95  380.95  380.95  448.00  448.00  448.00  448.00  448.00  448.00
  498.49  498.49  498.49  498.49  498.49  498.50  525.80  525.80  525.80
  525.80  525.80  525.80  525.80  525.80  525.80  525.80  525.80  525.80
  540.88  540.88  540.88  564.22  564.22  564.22  564.22  564.22  564.22
  613.04  613.04  613.04  613.04  613.04  613.04  613.04  613.04  613.04
  613.04  613.04  613.04  619.10  619.10  619.10  619.10  619.10  619.10
  642.14  642.14  642.14  650.62  650.62  650.62  650.62  650.62  650.62
  650.62  650.62  650.62  650.62  650.62  650.63  658.41  658.41  658.41
  658.41  658.41  658.41  701.06  701.06  701.06  701.06  701.06  701.06
  724.26  724.26  724.26  724.26  724.26  724.26  727.72  727.72  727.72
  727.72  727.72  727.72  771.78  771.78  771.78  771.78  771.78  771.78
  772.25  772.25  772.25  772.25  772.25  772.25  772.25  772.25  772.25
  772.25  772.25  772.25  849.96  849.96  849.96  849.96  849.96  849.96
  877.30  877.30  877.30  877.30  877.30  877.30  886.00  886.00  886.00
  886.00  886.00  886.00  886.00  886.00  886.00  886.00  886.00  886.00
  934.25  934.25  934.25  934.25  934.25  934.25  963.63 1013.83 1013.83
 1013.83 1013.83 1013.83 1013.83 1032.60 1032.60 1032.60 1032.60 1032.60
 1032.60 1109.49 1109.49 1109.49 1109.49 1109.49 1109.50 1109.50 1109.50
 1109.50 1109.50 1109.50 1109.50 1153.44 1153.44 1153.44 1153.44 1153.44
 1153.44 1168.14 1168.14 1168.14 1268.64 1268.64 1268.64 1268.64 1268.64
 1268.64 1391.17 1391.17 1391.17 1391.17 1391.17 1391.17 1397.19 1397.19
 1397.19 1397.19 1397.19 1397.19 1397.20 1397.20 1397.20 1397.20 1397.20
 1397.20 1406.62 1406.62 1406.62 1494.08 1494.08 1494.08 1494.08 1494.08
 1494.08 1519.94 1519.94 1519.94 1519.94 1519.94 1519.94 1519.94 1519.94
 1519.94 1519.94 1519.94 1519.94 1592.23 1592.23 1592.23 1592.23 1592.23
 1592.23 1607.49 1607.49 1607.49 1607.49 1607.49 1607.49 1648.51 1648.51
 1648.51 1648.51 1648.51 1648.51 1660.57 1660.57 1660.57 1661.77 1661.77
 1661.77 1661.77 1661.77 1661.77 1664.11 1664.11 1664.11 1664.11 1664.11
 1664.11 1665.75 1665.75 1665.75 1665.75 1665.75 1665.75 1666.25 1666.25
 1668.88 1668.88 1668.88 1668.88 1668.88 1668.88 1676.72 1676.72 1676.72
 1676.72 1676.72 1676.72 1676.72 1676.72 1676.72 1676.72 1676.72 1676.72
 1683.52 1683.52 1683.52 1683.52 1683.52 1683.52 1683.52 1683.52 1683.52
 1683.52 1683.52 1683.52 1702.96 1702.96 1702.96 1702.96 1702.96 1702.96
 1716.01 1716.01 1716.01 1716.01 1716.01 1716.01


--------------------------------------------------------------------------------
  Phonon properties (per mole of unit cells): Temperature =      0.000 K
--------------------------------------------------------------------------------
  Zero point energy            =       22.091176 eV
--------------------------------------------------------------------------------

  Phonon density of states : 

--------------------------------------------------------------------------------
 Frequency (cm-1) Density of States                                             
--------------------------------------------------------------------------------
    0.00000 |**                                                            0.005
   26.81262 |********                                                      0.016
   53.62525 |                                                              0.000
   80.43787 |                                                              0.000
  107.25050 |********                                                      0.016
  134.06312 |********                                                      0.016
  160.87575 |                                                              0.000
  187.68837 |********                                                      0.016
  214.50100 |****************                                              0.031
  241.31362 |                                                              0.000
  268.12625 |********                                                      0.016
  294.93887 |                                                              0.000
  321.75149 |                                                              0.000
  348.56412 |********************************                              0.063
  375.37674 |********************                                          0.039
  402.18937 |                                                              0.000
  429.00199 |********                                                      0.016
  455.81462 |                                                              0.000
  482.62724 |********                                                      0.016
  509.43987 |****************                                              0.031
  536.25249 |****                                                          0.008
  563.06511 |********                                                      0.016
  589.87774 |****************                                              0.031
  616.69036 |************                                                  0.023
  643.50299 |************************                                      0.047
  670.31561 |                                                              0.000
  697.12824 |********                                                      0.016
  723.94086 |****************                                              0.031
  750.75349 |************************                                      0.047
  777.56611 |                                                              0.000
  804.37874 |                                                              0.000
  831.19136 |********                                                      0.016
  858.00398 |********                                                      0.016
  884.81661 |****************                                              0.031
  911.62923 |********                                                      0.016
  938.44186 |*                                                             0.003
  965.25448 |                                                              0.000
  992.06711 |********                                                      0.016
 1018.87973 |********                                                      0.016
 1045.69236 |                                                              0.000
 1072.50498 |                                                              0.000
 1099.31761 |****************                                              0.031
 1126.13023 |                                                              0.000
 1152.94285 |************                                                  0.023
 1179.75548 |                                                              0.000
 1206.56810 |                                                              0.000
 1233.38073 |                                                              0.000
 1260.19335 |********                                                      0.016
 1287.00598 |                                                              0.000
 1313.81860 |                                                              0.000
 1340.63123 |                                                              0.000
 1367.44385 |********                                                      0.016
 1394.25647 |********************                                          0.039
 1421.06910 |                                                              0.000
 1447.88172 |                                                              0.000
 1474.69435 |********                                                      0.016
 1501.50697 |****************                                              0.031
 1528.31960 |                                                              0.000
 1555.13222 |                                                              0.000
 1581.94485 |****************                                              0.031
 1608.75747 |                                                              0.000
 1635.57010 |********************                                          0.039
 1662.38272 |************************************************************  0.115
 1689.19534 |****************                                              0.031
--------------------------------------------------------------------------------



  Time to end of optimisation =      12.2763 seconds


  Peak dynamic memory used =       5.26 MB 


  Timing analysis for GULP :

--------------------------------------------------------------------------------
  Task / Subroutine                                          Time (Seconds)
--------------------------------------------------------------------------------
  Calculation of real space energy and derivatives                0.0011
  Calculation of Brenner energy and derivatives                   0.5689
  Calculation of phonons                                          3.6672
--------------------------------------------------------------------------------
  Total CPU time                                                 12.2767
--------------------------------------------------------------------------------


  Job Finished at 12:02.25 19th April      2022                               

