   2   2   0   0
  0.5687412E+01  0.2524371E-09  0.2524371E-09  0.2524371E-09  0.1000000E-15
   1.0000000000000000E-004
  CAR 
 SCF                                     
     28.86794300    -11.68401847  301     10.65335364      1.00000000
    -11.684  0.0000E+00  0.0000E+00
    -11.549  0.0000E+00  0.0000E+00
    -11.414  0.0000E+00  0.0000E+00
    -11.278  0.0000E+00  0.0000E+00
    -11.143  0.0000E+00  0.0000E+00
    -11.008  0.0000E+00  0.0000E+00
    -10.873  0.0000E+00  0.0000E+00
    -10.738  0.0000E+00  0.0000E+00
    -10.603  0.0000E+00  0.0000E+00
    -10.467  0.0000E+00  0.0000E+00
    -10.332  0.0000E+00  0.0000E+00
    -10.197  0.0000E+00  0.0000E+00
    -10.062  0.0000E+00  0.0000E+00
     -9.927  0.2633E-06  0.3559E-07
     -9.792  0.4611E+00  0.6233E-01
     -9.656  0.1255E-02  0.6250E-01
     -9.521  0.0000E+00  0.6250E-01
     -9.386  0.0000E+00  0.6250E-01
     -9.251  0.0000E+00  0.6250E-01
     -9.116  0.0000E+00  0.6250E-01
     -8.981  0.0000E+00  0.6250E-01
     -8.845  0.2310E-15  0.6250E-01
     -8.710  0.4182E+00  0.1190E+00
     -8.575  0.9689E+00  0.2500E+00
     -8.440  0.0000E+00  0.2500E+00
     -8.305  0.0000E+00  0.2500E+00
     -8.170  0.0000E+00  0.2500E+00
     -8.034  0.0000E+00  0.2500E+00
     -7.899  0.0000E+00  0.2500E+00
     -7.764  0.0000E+00  0.2500E+00
     -7.629  0.5506E-02  0.2507E+00
     -7.494  0.1382E+01  0.4375E+00
     -7.358  0.0000E+00  0.4375E+00
     -7.223  0.0000E+00  0.4375E+00
     -7.088  0.0000E+00  0.4375E+00
     -6.953  0.0000E+00  0.4375E+00
     -6.818  0.0000E+00  0.4375E+00
     -6.683  0.0000E+00  0.4375E+00
     -6.547  0.1892E-02  0.4378E+00
     -6.412  0.1846E+01  0.6873E+00
     -6.277  0.1338E-02  0.6875E+00
     -6.142  0.0000E+00  0.6875E+00
     -6.007  0.0000E+00  0.6875E+00
     -5.872  0.0000E+00  0.6875E+00
     -5.736  0.0000E+00  0.6875E+00
     -5.601  0.0000E+00  0.6875E+00
     -5.466  0.9084E-02  0.6887E+00
     -5.331  0.2765E+01  0.1062E+01
     -5.196  0.0000E+00  0.1062E+01
     -5.061  0.0000E+00  0.1062E+01
     -4.925  0.0000E+00  0.1062E+01
     -4.790  0.0000E+00  0.1062E+01
     -4.655  0.4966E-06  0.1063E+01
     -4.520  0.1382E+01  0.1249E+01
     -4.385  0.4962E-02  0.1250E+01
     -4.249  0.0000E+00  0.1250E+01
     -4.114  0.0000E+00  0.1250E+01
     -3.979  0.0000E+00  0.1250E+01
     -3.844  0.0000E+00  0.1250E+01
     -3.709  0.2002E-14  0.1250E+01
     -3.574  0.5574E+00  0.1325E+01
     -3.438  0.8297E+00  0.1437E+01
     -3.303  0.5434E-01  0.1445E+01
     -3.168  0.1333E+01  0.1625E+01
     -3.033  0.0000E+00  0.1625E+01
     -2.898  0.0000E+00  0.1625E+01
     -2.763  0.0000E+00  0.1625E+01
     -2.627  0.2157E-06  0.1625E+01
     -2.492  0.2752E+01  0.1997E+01
     -2.357  0.2270E-01  0.2000E+01
     -2.222  0.0000E+00  0.2000E+01
     -2.087  0.0000E+00  0.2000E+01
     -1.952  0.0000E+00  0.2000E+01
     -1.816  0.0000E+00  0.2000E+01
     -1.681  0.0000E+00  0.2000E+01
     -1.546  0.0000E+00  0.2000E+01
     -1.411  0.5406E-02  0.2001E+01
     -1.276  0.1382E+01  0.2187E+01
     -1.141  0.0000E+00  0.2188E+01
     -1.005  0.0000E+00  0.2188E+01
     -0.870  0.0000E+00  0.2188E+01
     -0.735  0.0000E+00  0.2188E+01
     -0.600  0.0000E+00  0.2188E+01
     -0.465  0.1811E-03  0.2188E+01
     -0.329  0.1387E+01  0.2375E+01
     -0.194  0.0000E+00  0.2375E+01
     -0.059  0.2946E-04  0.2375E+01
      0.076  0.2773E+01  0.2750E+01
      0.211  0.9516E-03  0.2750E+01
      0.346  0.0000E+00  0.2750E+01
      0.482  0.7854E-01  0.2761E+01
      0.617  0.1771E+01  0.3000E+01
      0.752  0.0000E+00  0.3000E+01
      0.887  0.0000E+00  0.3000E+01
      1.022  0.0000E+00  0.3000E+01
      1.157  0.0000E+00  0.3000E+01
      1.293  0.1414E-01  0.3002E+01
      1.428  0.2760E+01  0.3375E+01
      1.563  0.0000E+00  0.3375E+01
      1.698  0.0000E+00  0.3375E+01
      1.833  0.0000E+00  0.3375E+01
      1.968  0.0000E+00  0.3375E+01
      2.104  0.0000E+00  0.3375E+01
      2.239  0.0000E+00  0.3375E+01
      2.374  0.0000E+00  0.3375E+01
      2.509  0.0000E+00  0.3375E+01
      2.644  0.5210E-12  0.3375E+01
      2.780  0.1800E+01  0.3618E+01
      2.915  0.9739E+00  0.3750E+01
      3.050  0.0000E+00  0.3750E+01
      3.185  0.0000E+00  0.3750E+01
      3.320  0.2447E-07  0.3750E+01
      3.455  0.2501E+01  0.4088E+01
      3.591  0.2728E+00  0.4125E+01
      3.726  0.1387E+01  0.4312E+01
      3.861  0.1238E+01  0.4480E+01
      3.996  0.1495E+00  0.4500E+01
      4.131  0.0000E+00  0.4500E+01
      4.266  0.0000E+00  0.4500E+01
      4.402  0.0000E+00  0.4500E+01
      4.537  0.0000E+00  0.4500E+01
      4.672  0.0000E+00  0.4500E+01
      4.807  0.2184E+00  0.4530E+01
      4.942  0.5304E+01  0.5247E+01
      5.077  0.2559E-01  0.5250E+01
      5.213  0.1178E-01  0.5252E+01
      5.348  0.1375E+01  0.5437E+01
      5.483  0.0000E+00  0.5438E+01
      5.618  0.0000E+00  0.5438E+01
      5.753  0.0000E+00  0.5438E+01
      5.888  0.9871E-04  0.5438E+01
      6.024  0.1387E+01  0.5625E+01
      6.159  0.1387E+01  0.5812E+01
      6.294  0.6031E-01  0.5821E+01
      6.429  0.1327E+01  0.6000E+01
      6.564  0.0000E+00  0.6000E+01
      6.700  0.1370E-09  0.6000E+01
      6.835  0.1249E+01  0.6169E+01
      6.970  0.7789E+00  0.6274E+01
      7.105  0.4125E+01  0.6832E+01
      7.240  0.7833E+00  0.6938E+01
      7.375  0.0000E+00  0.6938E+01
      7.511  0.2387E-14  0.6938E+01
      7.646  0.5690E+00  0.7014E+01
      7.781  0.8182E+00  0.7125E+01
      7.916  0.0000E+00  0.7125E+01
      8.051  0.0000E+00  0.7125E+01
      8.186  0.9578E-10  0.7125E+01
      8.322  0.1235E+01  0.7292E+01
      8.457  0.1520E+00  0.7312E+01
      8.592  0.1270E-02  0.7313E+01
      8.727  0.9359E+00  0.7439E+01
      8.862  0.4500E+00  0.7500E+01
      8.997  0.1540E-15  0.7500E+01
      9.133  0.3828E+00  0.7552E+01
      9.268  0.1004E+01  0.7688E+01
      9.403  0.1387E+01  0.7875E+01
      9.538  0.0000E+00  0.7875E+01
      9.673  0.0000E+00  0.7875E+01
      9.809  0.0000E+00  0.7875E+01
      9.944  0.0000E+00  0.7875E+01
     10.079  0.0000E+00  0.7875E+01
     10.214  0.0000E+00  0.7875E+01
     10.349  0.0000E+00  0.7875E+01
     10.484  0.1563E-01  0.7877E+01
     10.620  0.9091E+00  0.8000E+01
     10.755  0.0000E+00  0.8000E+01
     10.890  0.0000E+00  0.8000E+01
     11.025  0.0000E+00  0.8000E+01
     11.160  0.0000E+00  0.8000E+01
     11.295  0.0000E+00  0.8000E+01
     11.431  0.0000E+00  0.8000E+01
     11.566  0.0000E+00  0.8000E+01
     11.701  0.0000E+00  0.8000E+01
     11.836  0.0000E+00  0.8000E+01
     11.971  0.0000E+00  0.8000E+01
     12.106  0.0000E+00  0.8000E+01
     12.242  0.0000E+00  0.8000E+01
     12.377  0.0000E+00  0.8000E+01
     12.512  0.0000E+00  0.8000E+01
     12.647  0.0000E+00  0.8000E+01
     12.782  0.0000E+00  0.8000E+01
     12.918  0.0000E+00  0.8000E+01
     13.053  0.0000E+00  0.8000E+01
     13.188  0.0000E+00  0.8000E+01
     13.323  0.0000E+00  0.8000E+01
     13.458  0.0000E+00  0.8000E+01
     13.593  0.0000E+00  0.8000E+01
     13.729  0.0000E+00  0.8000E+01
     13.864  0.0000E+00  0.8000E+01
     13.999  0.0000E+00  0.8000E+01
     14.134  0.0000E+00  0.8000E+01
     14.269  0.0000E+00  0.8000E+01
     14.404  0.0000E+00  0.8000E+01
     14.540  0.0000E+00  0.8000E+01
     14.675  0.0000E+00  0.8000E+01
     14.810  0.0000E+00  0.8000E+01
     14.945  0.0000E+00  0.8000E+01
     15.080  0.0000E+00  0.8000E+01
     15.215  0.0000E+00  0.8000E+01
     15.351  0.0000E+00  0.8000E+01
     15.486  0.0000E+00  0.8000E+01
     15.621  0.0000E+00  0.8000E+01
     15.756  0.0000E+00  0.8000E+01
     15.891  0.0000E+00  0.8000E+01
     16.026  0.1733E-13  0.8000E+01
     16.162  0.7072E+00  0.8096E+01
     16.297  0.6819E+00  0.8188E+01
     16.432  0.1385E+01  0.8375E+01
     16.567  0.0000E+00  0.8375E+01
     16.702  0.0000E+00  0.8375E+01
     16.838  0.0000E+00  0.8375E+01
     16.973  0.5929E-01  0.8383E+01
     17.108  0.1328E+01  0.8562E+01
     17.243  0.0000E+00  0.8562E+01
     17.378  0.0000E+00  0.8562E+01
     17.513  0.6087E-07  0.8563E+01
     17.649  0.9165E+00  0.8686E+01
     17.784  0.8224E-02  0.8688E+01
     17.919  0.4662E-09  0.8688E+01
     18.054  0.1685E+01  0.8915E+01
     18.189  0.7968E+00  0.9023E+01
     18.324  0.7549E+00  0.9125E+01
     18.460  0.0000E+00  0.9125E+01
     18.595  0.1055E-09  0.9125E+01
     18.730  0.2421E+01  0.9452E+01
     18.865  0.1740E+01  0.9687E+01
     19.000  0.2002E-13  0.9688E+01
     19.135  0.1337E+01  0.9868E+01
     19.271  0.1944E+01  0.1013E+02
     19.406  0.8801E+00  0.1025E+02
     19.541  0.3133E+00  0.1029E+02
     19.676  0.6115E+00  0.1038E+02
     19.811  0.9730E+00  0.1051E+02
     19.947  0.8765E+00  0.1062E+02
     20.082  0.0000E+00  0.1062E+02
     20.217  0.0000E+00  0.1062E+02
     20.352  0.2233E-14  0.1062E+02
     20.487  0.6051E+00  0.1071E+02
     20.622  0.3551E+01  0.1119E+02
     20.758  0.3816E+00  0.1124E+02
     20.893  0.3785E+01  0.1175E+02
     21.028  0.1385E+01  0.1194E+02
     21.163  0.1953E-02  0.1194E+02
     21.298  0.2310E-13  0.1194E+02
     21.433  0.7277E+00  0.1204E+02
     21.569  0.6594E+00  0.1212E+02
     21.704  0.0000E+00  0.1212E+02
     21.839  0.0000E+00  0.1212E+02
     21.974  0.4182E-07  0.1213E+02
     22.109  0.2725E+01  0.1249E+02
     22.244  0.4883E-01  0.1250E+02
     22.380  0.0000E+00  0.1250E+02
     22.515  0.0000E+00  0.1250E+02
     22.650  0.0000E+00  0.1250E+02
     22.785  0.1595E-12  0.1250E+02
     22.920  0.8658E+00  0.1262E+02
     23.055  0.5213E+00  0.1269E+02
     23.191  0.0000E+00  0.1269E+02
     23.326  0.0000E+00  0.1269E+02
     23.461  0.7079E-04  0.1269E+02
     23.596  0.2774E+01  0.1306E+02
     23.731  0.2774E+01  0.1344E+02
     23.867  0.7752E-03  0.1344E+02
     24.002  0.5368E+00  0.1351E+02
     24.137  0.3625E+01  0.1400E+02
     24.272  0.9682E-12  0.1400E+02
     24.407  0.9890E+00  0.1413E+02
     24.542  0.3164E+01  0.1456E+02
     24.678  0.8245E-02  0.1456E+02
     24.813  0.2459E+00  0.1460E+02
     24.948  0.2165E+00  0.1462E+02
     25.083  0.0000E+00  0.1462E+02
     25.218  0.4456E-04  0.1463E+02
     25.353  0.1387E+01  0.1481E+02
     25.489  0.1819E-03  0.1481E+02
     25.624  0.0000E+00  0.1481E+02
     25.759  0.0000E+00  0.1481E+02
     25.894  0.7306E-01  0.1482E+02
     26.029  0.1755E+01  0.1506E+02
     26.164  0.2333E+01  0.1537E+02
     26.300  0.2850E+00  0.1541E+02
     26.435  0.1102E+01  0.1556E+02
     26.570  0.4632E-01  0.1557E+02
     26.705  0.4167E+00  0.1563E+02
     26.840  0.1386E+01  0.1581E+02
     26.976  0.3764E-02  0.1581E+02
     27.111  0.1383E+01  0.1600E+02
     27.246  0.0000E+00  0.1600E+02
     27.381  0.0000E+00  0.1600E+02
     27.516  0.0000E+00  0.1600E+02
     27.651  0.0000E+00  0.1600E+02
     27.787  0.0000E+00  0.1600E+02
     27.922  0.0000E+00  0.1600E+02
     28.057  0.0000E+00  0.1600E+02
     28.192  0.0000E+00  0.1600E+02
     28.327  0.0000E+00  0.1600E+02
     28.462  0.0000E+00  0.1600E+02
     28.598  0.0000E+00  0.1600E+02
     28.733  0.0000E+00  0.1600E+02
     28.868  0.0000E+00  0.1600E+02
