    2    2    1    1
  0.5687412E+01  0.2524371E-09  0.2524371E-09  0.2524371E-09  0.1000000E-15
   1.0000000000000000E-004
  CAR 
 SCF                                     
      8     10      8

  0.1250000E+00  0.1250000E+00  0.1250000E+00  0.3125000E-01
      1         -9.840747   1.000000
      2          8.761259   1.000000
      3         10.521906   1.000000
      4         10.521906   1.000000
      5         17.606671   0.000000
      6         17.606671   0.000000
      7         18.035287   0.000000
      8         24.811338   0.000000

  0.3750000E+00  0.1250000E+00  0.1250000E+00  0.9375000E-01
      1         -7.581895   1.000000
      2          3.417665   1.000000
      3          6.812025   1.000000
      4          9.333922   1.000000
      5         19.276723   0.000000
      6         19.802160   0.000000
      7         20.769096   0.000000
      8         25.288917   0.000000

 -0.3750000E+00  0.1250000E+00  0.1250000E+00  0.9375000E-01
      1         -4.567384   1.000000
      2         -1.363817   1.000000
      3          7.025366   1.000000
      4          7.649764   1.000000
      5         18.788224   0.000000
      6         20.975090   0.000000
      7         21.432326   0.000000
      8         26.314187   0.000000

 -0.1250000E+00  0.1250000E+00  0.1250000E+00  0.9375000E-01
      1         -8.701013   1.000000
      2          6.090402   1.000000
      3          8.299897   1.000000
      4          9.143171   1.000000
      5         17.003101   0.000000
      6         20.491365   0.000000
      7         20.575487   0.000000
      8         24.012229   0.000000

  0.3750000E+00  0.3750000E+00  0.1250000E+00  0.9375000E-01
      1         -6.467081   1.000000
      2          3.662196   1.000000
      3          5.955746   1.000000
      4          6.324276   1.000000
      5         16.349527   0.000000
      6         20.520646   0.000000
      7         24.023580   0.000000
      8         24.049997   0.000000

 -0.3750000E+00  0.3750000E+00  0.1250000E+00  0.1875000E+00
      1         -2.534679   1.000000
      2          0.016033   1.000000
      3          2.772753   1.000000
      4          4.832104   1.000000
      5         18.709828   0.000000
      6         22.072054   0.000000
      7         23.670358   0.000000
      8         26.046953   0.000000

 -0.1250000E+00  0.3750000E+00  0.1250000E+00  0.1875000E+00
      1         -5.417986   1.000000
      2          1.338026   1.000000
      3          4.900629   1.000000
      4          7.094877   1.000000
      5         19.136275   0.000000
      6         20.800881   0.000000
      7         23.532624   0.000000
      8         24.493771   0.000000

 -0.3750000E+00 -0.3750000E+00  0.1250000E+00  0.9375000E-01
      1         -3.272161   1.000000
      2          0.511667   1.000000
      3          3.839008   1.000000
      4          5.254829   1.000000
      5         16.161226   0.000000
      6         18.191222   0.000000
      7         26.763636   0.000000
      8         27.024672   0.000000

  0.3750000E+00  0.3750000E+00  0.3750000E+00  0.3125000E-01
      1         -6.500677   1.000000
      2          0.513179   1.000000
      3          8.644904   1.000000
      4          8.644904   1.000000
      5         19.548342   0.000000
      6         19.548342   0.000000
      7         19.852633   0.000000
      8         26.592636   0.000000

 -0.3750000E+00  0.3750000E+00  0.3750000E+00  0.9375000E-01
      1         -3.569232   1.000000
      2         -0.400099   1.000000
      3          3.439213   1.000000
      4          6.971617   1.000000
      5         18.028094   0.000000
      6         22.914728   0.000000
      7         24.397291   0.000000
      8         25.922762   0.000000
