Automatically generated mesh
      10
Reciprocal lattice
    0.12500000000000    0.12500000000000    0.12500000000000             8
    0.37500000000000    0.12500000000000    0.12500000000000            24
   -0.37500000000000    0.12500000000000    0.12500000000000            24
   -0.12500000000000    0.12500000000000    0.12500000000000            24
    0.37500000000000    0.37500000000000    0.12500000000000            24
   -0.37500000000000    0.37500000000000    0.12500000000000            48
   -0.12500000000000    0.37500000000000    0.12500000000000            48
   -0.37500000000000   -0.37500000000000    0.12500000000000            24
    0.37500000000000    0.37500000000000    0.37500000000000             8
   -0.37500000000000    0.37500000000000    0.37500000000000            24
