       N       E                     dE             d eps       ncg     rms          rms(c)
DAV:   1     0.383210403035E+02    0.38321E+02   -0.45859E+03   160   0.105E+03
DAV:   2    -0.175113418941E+02   -0.55832E+02   -0.54027E+02   192   0.258E+02
DAV:   3    -0.188272255774E+02   -0.13159E+01   -0.13159E+01   248   0.419E+01
DAV:   4    -0.188288688240E+02   -0.16432E-02   -0.16432E-02   184   0.172E+00
DAV:   5    -0.188288764613E+02   -0.76372E-05   -0.76372E-05   224   0.128E-01    0.169E+01
DAV:   6    -0.183353635214E+02    0.49351E+00   -0.36098E-01   232   0.955E+00    0.118E+01
DAV:   7    -0.181685965967E+02    0.16677E+00   -0.50316E-01   248   0.111E+01    0.245E+00
DAV:   8    -0.181647311534E+02    0.38654E-02   -0.10030E-02   216   0.172E+00    0.132E-01
DAV:   9    -0.181647115626E+02    0.19591E-04   -0.20677E-04   232   0.222E-01    0.388E-02
DAV:  10    -0.181647238238E+02   -0.12261E-04   -0.63714E-06   160   0.321E-02    0.786E-03
DAV:  11    -0.181647260084E+02   -0.21847E-05   -0.23010E-06   224   0.178E-02    0.325E-03
DAV:  12    -0.181647260510E+02   -0.42588E-07   -0.18502E-08    80   0.222E-03
   1 F= -.18164726E+02 E0= -.18164726E+02  d E =-.868847E-15
