 vasp.6.4.3 19Mar24 (build Jun 11 2024 09:57:22) complex                         
 executed on             LinuxGNU date 2024.07.24  23:31:37
 running    4 mpi-ranks, with    1 threads/rank, on    1 nodes
 distrk:  each k-point on    4 cores,    1 groups
 distr:  one band on NCORE=   1 cores,    4 groups


--------------------------------------------------------------------------------------------------------


 INCAR:
   SYSTEM = SCF
   PREC = N
   ISTART = 0
   ICHARG = 2
   ENCUT = 550
   EDIFF = 1e-6
   EDIFFG = -0.001
   IBRION = 2
   ISIF = 3
   POTIM = 0.1
   ISMEAR = 0
   SIGMA = 0.025
   LCHARG = F
   LWAVE = F
   NPAR = 4

 POTCAR:    PAW_PBE C_s 06Sep2000                 
 POTCAR:    PAW_PBE C_s 06Sep2000                 
   SHA256 =  9a3c01a40653262e7b717cd20cb47bbe50ae4c537fe117e874a5caa4e6ed1e45 C_s/POTCAR            
   COPYR  = (c) Copyright 06Sep2000 Georg Kresse                                                    
   COPYR  = This file is part of the software VASP. Any use, copying, and all other rights are regul
   COPYR  = If you do not have a valid VASP license, you may not use, copy or distribute this file. 
   VRHFIN =C: s2p2                                                                                  
   LEXCH  = PE                                                                                      
   EATOM  =   147.1560 eV,   10.8157 Ry                                                             
                                                                                                    
   TITEL  = PAW_PBE C_s 06Sep2000                                                                   
   LULTRA =        F    use ultrasoft PP ?                                                          
   IUNSCR =        0    unscreen: 0-lin 1-nonlin 2-no                                               
   RPACOR =    0.000    partial core radius                                                         
   POMASS =   12.011; ZVAL   =    4.000    mass and valenz                                          
   RCORE  =    1.850    outmost cutoff radius                                                       
   RWIGS  =    1.890; RWIGS  =    1.000    wigner-seitz radius (au A)                               
   ENMAX  =  273.911; ENMIN  =  205.433 eV                                                          
   RCLOC  =    0.804    cutoff for local pot                                                        
   LCOR   =        T    correct aug charges                                                         
   LPAW   =        T    paw PP                                                                      
   EAUG   =  439.243                                                                                
   DEXC   =    0.000                                                                                
   RMAX   =    1.897    core radius for proj-oper                                                   
   RAUG   =    1.300    factor for augmentation sphere                                              
   RDEP   =    1.940    radius for radial grids                                                     
   RDEPT  =    1.573    core radius for aug-charge                                                  
                                                                                                    
   Atomic configuration                                                                             
    4 entries                                                                                       
     n  l   j            E        occ.                                                              
     1  0  0.50      -273.3789   2.0000                                                             
     2  0  0.50       -13.7508   2.0000                                                             
     2  1  0.50        -5.2854   2.0000                                                             
     3  2  1.50        -1.3606   0.0000                                                             
   Description                                                                                      
     l       E           TYP  RCUT    TYP  RCUT                                                     
     0    -13.7508457     23  1.500                                                                 
     0    -11.0934578     23  1.500                                                                 
     1     -5.2854381     23  1.850                                                                 
     1     -1.3099858     23  1.850                                                                 
  local pseudopotential read in
  atomic valenz-charges read in
  non local Contribution for L=           0  read in
    real space projection operators read in
  non local Contribution for L=           0  read in
    real space projection operators read in
  non local Contribution for L=           1  read in
    real space projection operators read in
  non local Contribution for L=           1  read in
    real space projection operators read in
    PAW grid and wavefunctions read in

   number of l-projection  operators is LMAX  =           4
   number of lm-projection operators is LMMAX =           8

  PAW_PBE C_s 06Sep2000                 :
 energy of atom  1       EATOM= -147.1560
 kinetic energy error for atom=    0.0012 (will be added to EATOM!!)


 POSCAR: sisl output
  positions in cartesian coordinates
  No initial velocities read in


 exchange-correlation table for PE
   RHO(1)=    0.500       N(1)  =     2000
   RHO(2)=  100.500       N(2)  =     4000



--------------------------------------------------------------------------------------------------------


 ion  position               nearest neighbor table
   1  0.000  0.000  0.000-   2 1.55   2 1.55   2 1.55   2 1.55
   2  0.250  0.250  0.250-   1 1.55   1 1.55   1 1.55   1 1.55

  LATTYP: Found a face centered cubic cell.
 ALAT       =     3.5700000000
  
  Lattice vectors:
  
 A1 = (   0.0000000000,   1.7850000000,   1.7850000000)
 A2 = (   1.7850000000,   0.0000000000,   1.7850000000)
 A3 = (   1.7850000000,   1.7850000000,   0.0000000000)


Analysis of symmetry for initial positions (statically):
=====================================================================
 Subroutine PRICEL returns:
 Original cell was already a primitive cell.
 

 Routine SETGRP: Setting up the symmetry group for a 
 face centered cubic supercell.


 Subroutine GETGRP returns: Found 48 space group operations
 (whereof 24 operations were pure point group operations)
 out of a pool of 48 trial point group operations.


The static configuration has the point symmetry T_d .
 The point group associated with its full space group is O_h .


Analysis of symmetry for dynamics (positions and initial velocities):
=====================================================================
 Subroutine PRICEL returns:
 Original cell was already a primitive cell.
 

 Routine SETGRP: Setting up the symmetry group for a 
 face centered cubic supercell.


 Subroutine GETGRP returns: Found 48 space group operations
 (whereof 24 operations were pure point group operations)
 out of a pool of 48 trial point group operations.


The dynamic configuration has the point symmetry T_d .
 The point group associated with its full space group is O_h .


Analysis of constrained symmetry for selective dynamics:
=====================================================================
 Subroutine PRICEL returns:
 Original cell was already a primitive cell.
 

 Routine SETGRP: Setting up the symmetry group for a 
 face centered cubic supercell.


 Subroutine GETGRP returns: Found 48 space group operations
 (whereof 24 operations were pure point group operations)
 out of a pool of 48 trial point group operations.


The constrained configuration has the point symmetry T_d .
 The point group associated with its full space group is O_h .


 Subroutine INISYM returns: Found 48 space group operations
 (whereof 24 operations are pure point group operations),
 and found     1 'primitive' translations


----------------------------------------------------------------------------------------

                                     Primitive cell                                     

  volume of cell :      11.3748

  direct lattice vectors                    reciprocal lattice vectors
     0.000000000  1.785000000  1.785000000    -0.280112045  0.280112045  0.280112045
     1.785000000  0.000000000  1.785000000     0.280112045 -0.280112045  0.280112045
     1.785000000  1.785000000  0.000000000     0.280112045  0.280112045 -0.280112045

  length of vectors
     2.524371209  2.524371209  2.524371209     0.485168293  0.485168293  0.485168293

  position of ions in fractional coordinates (direct lattice)
     0.000000000  0.000000000  0.000000000
     0.250000000  0.250000000  0.250000000

  ion indices of the primitive-cell ions
   primitive index   ion index
                 1           1
                 2           2

----------------------------------------------------------------------------------------



 KPOINTS: K-Points                                

Automatic generation of k-mesh.
 Grid dimensions read from file:
 generate k-points for:    4    4    4

 Generating k-lattice:

  Cartesian coordinates                     Fractional coordinates (reciprocal lattice)
    -0.070028011  0.070028011  0.070028011     0.250000000 -0.000000000  0.000000000
     0.070028011 -0.070028011  0.070028011    -0.000000000  0.250000000 -0.000000000
     0.070028011  0.070028011 -0.070028011     0.000000000  0.000000000  0.250000000

  Length of vectors
     0.121292073  0.121292073  0.121292073

  Shift w.r.t. Gamma in fractional coordinates (k-lattice)
     0.500000000  0.500000000  0.500000000

 
 Subroutine IBZKPT returns following result:
 ===========================================
 
 Found     10 irreducible k-points:
 
 Following reciprocal coordinates:
            Coordinates               Weight
  0.125000  0.125000  0.125000      8.000000
  0.375000  0.125000  0.125000     24.000000
 -0.375000  0.125000  0.125000     24.000000
 -0.125000  0.125000  0.125000     24.000000
  0.375000  0.375000  0.125000     24.000000
 -0.375000  0.375000  0.125000     48.000000
 -0.125000  0.375000  0.125000     48.000000
 -0.375000 -0.375000  0.125000     24.000000
  0.375000  0.375000  0.375000      8.000000
 -0.375000  0.375000  0.375000     24.000000
 
 Following cartesian coordinates:
            Coordinates               Weight
  0.035014  0.035014  0.035014      8.000000
 -0.035014  0.105042  0.105042     24.000000
  0.175070 -0.105042 -0.105042     24.000000
  0.105042 -0.035014 -0.035014     24.000000
  0.035014  0.035014  0.175070     24.000000
  0.245098 -0.175070 -0.035014     48.000000
  0.175070 -0.105042  0.035014     48.000000
  0.035014  0.035014 -0.245098     24.000000
  0.105042  0.105042  0.105042      8.000000
  0.315126 -0.105042 -0.105042     24.000000
 


--------------------------------------------------------------------------------------------------------




 Dimension of arrays:
   k-points           NKPTS =     10   k-points in BZ     NKDIM =     10   number of bands    NBANDS=      8
   number of dos      NEDOS =    301   number of ions     NIONS =      2
   non local maximal  LDIM  =      4   non local SUM 2l+1 LMDIM =      8
   total plane-waves  NPLWV =   2744
   max r-space proj   IRMAX =      1   max aug-charges    IRDMAX=   5263
   dimension x,y,z NGX =    14 NGY =   14 NGZ =   14
   dimension x,y,z NGXF=    28 NGYF=   28 NGZF=   28
   support grid    NGXF=    28 NGYF=   28 NGZF=   28
   ions per type =               2
   NGX,Y,Z   is equivalent  to a cutoff of   9.22,  9.22,  9.22 a.u.
   NGXF,Y,Z  is equivalent  to a cutoff of  18.44, 18.44, 18.44 a.u.

 SYSTEM =  SCF                                     
 POSCAR =  sisl output                             

 Startparameter for this run:
   NWRITE =      2    write-flag & timer
   PREC   = n         normal or accurate (medium, high low for compatibility)
   ISTART =      0    job   : 0-new  1-cont  2-samecut
   ICHARG =      2    charge: 1-file 2-atom 10-const
   ISPIN  =      1    spin polarized calculation?
   LNONCOLLINEAR =      F non collinear calculations
   LSORBIT =      F    spin-orbit coupling
   INIWAV =      1    electr: 0-lowe 1-rand  2-diag
   LASPH  =      F    aspherical Exc in radial PAW
 Electronic Relaxation 1
   ENCUT  =  550.0 eV  40.42 Ry    6.36 a.u.   4.83  4.83  4.83*2*pi/ulx,y,z
   ENINI  =  550.0     initial cutoff
   ENAUG  =  439.2 eV  augmentation charge cutoff
   NELM   =     60;   NELMIN=  2; NELMDL= -5     # of ELM steps 
   EDIFF  = 0.1E-05   stopping-criterion for ELM
   LREAL  =      F    real-space projection
   NLSPLINE    = F    spline interpolate recip. space projectors
   LCOMPAT=      F    compatible to vasp.4.4
   GGA_COMPAT  = T    GGA compatible to vasp.4.4-vasp.4.6
   LMAXPAW     = -100 max onsite density
   LMAXMIX     =    2 max onsite mixed and CHGCAR
   VOSKOWN=      0    Vosko Wilk Nusair interpolation
   ROPT   =    0.00000
 Ionic relaxation
   EDIFFG = -.1E-02   stopping-criterion for IOM
   NSW    =      0    number of steps for IOM
   NBLOCK =      1;   KBLOCK =      1    inner block; outer block 
   IBRION =     -1    ionic relax: 0-MD 1-quasi-New 2-CG
   NFREE  =      1    steps in history (QN), initial steepest desc. (CG)
   ISIF   =      3    stress and relaxation
   IWAVPR =     10    prediction:  0-non 1-charg 2-wave 3-comb
   ISYM   =      2    0-nonsym 1-usesym 2-fastsym
   LCORR  =      T    Harris-Foulkes like correction to forces

   POTIM  = 0.1000    time-step for ionic-motion
   TEIN   =    0.0    initial temperature
   TEBEG  =    0.0;   TEEND  =   0.0 temperature during run
   SMASS  =  -3.00    Nose mass-parameter (am)
   estimated Nose-frequenzy (Omega)   =  0.10E-29 period in steps = 0.63E+47 mass=  -0.146E-27a.u.
   SCALEE = 1.0000    scale energy and forces
   NPACO  =    256;   APACO  = 10.0  distance and # of slots for P.C.
   PSTRESS=    0.0 pullay stress

  Mass of Ions in am
   POMASS =  12.01
  Ionic Valenz
   ZVAL   =   4.00
  Atomic Wigner-Seitz radii
   RWIGS  =  -1.00
  virtual crystal weights 
   VCA    =   1.00
   NELECT =       8.0000    total number of electrons
   NUPDOWN=      -1.0000    fix difference up-down

 DOS related values:
   EMIN   =  10.00;   EMAX   =-10.00  energy-range for DOS
   EFERMI =   0.00;   METHOD = LEGACY      
   ISMEAR =     0;   SIGMA  =   0.03  broadening in eV -4-tet -1-fermi 0-gaus

 Electronic relaxation 2 (details)
   IALGO  =     38    algorithm
   LDIAG  =      T    sub-space diagonalisation (order eigenvalues)
   LSUBROT=      F    optimize rotation matrix (better conditioning)
   TURBO    =      0    0=normal 1=particle mesh
   IRESTART =      0    0=no restart 2=restart with 2 vectors
   NREBOOT  =      0    no. of reboots
   NMIN     =      0    reboot dimension
   EREF     =   0.00    reference energy to select bands
   IMIX   =      4    mixing-type and parameters
     AMIX     =   0.40;   BMIX     =  1.00
     AMIX_MAG =   1.60;   BMIX_MAG =  1.00
     AMIN     =   0.10
     WC   =   100.;   INIMIX=   1;  MIXPRE=   1;  MAXMIX= -45

 Intra band minimization:
   WEIMIN = 0.0000     energy-eigenvalue tresh-hold
   EBREAK =  0.31E-07  absolut break condition
   DEPER  =   0.30     relativ break condition  

   TIME   =   0.40     timestep for ELM

  volume/ion in A,a.u.               =       5.69        38.38
  Fermi-wavevector in a.u.,A,eV,Ry     =   1.455872  2.751200 28.838420  2.119564
  Thomas-Fermi vector in A             =   2.572856

 Write flags
   LWAVE        =      F    write WAVECAR
   LDOWNSAMPLE  =      F    k-point downsampling of WAVECAR
   LCHARG       =      F    write CHGCAR
   LVTOT        =      F    write LOCPOT, total local potential
   LVHAR        =      F    write LOCPOT, Hartree potential only
   WRT_POTENTIAL= false  ! write potential to hdf5 file
   LELF         =      F    write electronic localiz. function (ELF)
   LORBIT       =      0    0 simple, 1 ext, 2 COOP (PROOUT), +10 PAW based schemes


 Dipole corrections
   LMONO      =      F    monopole corrections only (constant potential shift)
   LDIPOL     =      F    correct potential (dipole corrections)
   IDIPOL     =      0    1-x, 2-y, 3-z, 4-all directions 
   EPSILON    =  1.0000000 bulk dielectric constant
   LVACPOTAV  =      F  vacuum potentials using an averaging scheme for the charge density
   VACPOTFLAT =  0.1000000 required flatness to determine vacuum potential
 Exchange correlation treatment:
   GGA     = PE    functional components
   XC_C    = 1    coefficients multiplying the functional components
   LIBXC   =     F    Libxc                    
   VOSKOWN =     0    Vosko Wilk Nusair interpolation
   LHFCALC =     F    Hartree Fock is set to
   LHFONE  =     F    Hartree Fock one center treatment
   AEXX    =    0.0000 exact exchange contribution

 Parameters of functionals:
   PE:
     No parameter

 Van der Waals corrections
   IVDW    =     0    specifies the selected vdW correction

 Linear response parameters
   LEPSILON=     F    determine dielectric tensor
   LRPA    =     F    only Hartree local field effects (RPA)
   LNABLA  =     F    use nabla operator in PAW spheres
   LVEL    =     F    velocity operator in full k-point grid
   CSHIFT  =0.1000    complex shift for real part using Kramers Kronig
   OMEGAMAX=  -1.0    maximum frequency
   DEG_THRESHOLD= 0.2000000E-02 threshold for treating states as degnerate
   RTIME   =   -0.100 relaxation time in fs
  (WPLASMAI=    0.000 imaginary part of plasma frequency in eV, 0.658/RTIME)
   DFIELD  = 0.0000000 0.0000000 0.0000000 field for delta impulse in time

  Optional k-point grid parameters
   LKPOINTS_OPT  =     F    use optional k-point grid
   KPOINTS_OPT_MODE=     1    mode for optional k-point grid

 Orbital magnetization related:
   ORBITALMAG=     F  switch on orbital magnetization
   LCHIMAG   =     F  perturbation theory with respect to B field
   DQ        =  0.001000  dq finite difference perturbation B field
   LLRAUG    =     F  two centre corrections for induced B field
   LBONE     =     F  B-component reconstruction in AE one-centre
   LVGVCALC  =     T  calculate vGv susceptibility
   LVGVAPPL  =     F  apply vGv susceptibility instead of pGv for G=0

 Random number generation:
   RANDOM_GENERATOR = DEFAULT
   PCG_SEED         = not used


--------------------------------------------------------------------------------------------------------


 Static calculation
 charge density and potential will be updated during run
 non-spin polarized calculation
 Variant of blocked Davidson
 Davidson routine will perform the subspace rotation
 perform sub-space diagonalisation
    after iterative eigenvector-optimisation
 modified Broyden-mixing scheme, WC =      100.0
 initial mixing is a Kerker type mixing with AMIX =  0.4000 and BMIX =      1.0000
 Hartree-type preconditioning will be used
 using additional bands            4
 reciprocal scheme for non local part
 calculate Harris-corrections to forces   (improved forces if not selfconsistent)
 use gradient corrections 
 use of overlap-Matrix (Vanderbilt PP)
 Gauss-broadening in eV      SIGMA  =   0.03


--------------------------------------------------------------------------------------------------------


  energy-cutoff  :      550.00
  volume of cell :       11.37
      direct lattice vectors                 reciprocal lattice vectors
     0.000000000  1.785000000  1.785000000    -0.280112045  0.280112045  0.280112045
     1.785000000  0.000000000  1.785000000     0.280112045 -0.280112045  0.280112045
     1.785000000  1.785000000  0.000000000     0.280112045  0.280112045 -0.280112045

  length of vectors
     2.524371209  2.524371209  2.524371209     0.485168293  0.485168293  0.485168293



 k-points in units of 2pi/SCALE and weight: K-Points                                
   0.03501401  0.03501401  0.03501401       0.031
  -0.03501401  0.10504202  0.10504202       0.094
   0.17507003 -0.10504202 -0.10504202       0.094
   0.10504202 -0.03501401 -0.03501401       0.094
   0.03501401  0.03501401  0.17507003       0.094
   0.24509804 -0.17507003 -0.03501401       0.188
   0.17507003 -0.10504202  0.03501401       0.188
   0.03501401  0.03501401 -0.24509804       0.094
   0.10504202  0.10504202  0.10504202       0.031
   0.31512605 -0.10504202 -0.10504202       0.094

 k-points in reciprocal lattice and weights: K-Points                                
   0.12500000  0.12500000  0.12500000       0.031
   0.37500000  0.12500000  0.12500000       0.094
  -0.37500000  0.12500000  0.12500000       0.094
  -0.12500000  0.12500000  0.12500000       0.094
   0.37500000  0.37500000  0.12500000       0.094
  -0.37500000  0.37500000  0.12500000       0.188
  -0.12500000  0.37500000  0.12500000       0.188
  -0.37500000 -0.37500000  0.12500000       0.094
   0.37500000  0.37500000  0.37500000       0.031
  -0.37500000  0.37500000  0.37500000       0.094

 position of ions in fractional coordinates (direct lattice) 
   0.00000000  0.00000000  0.00000000
   0.25000000  0.25000000  0.25000000

 position of ions in cartesian coordinates  (Angst):
   0.00000000  0.00000000  0.00000000
   0.89250000  0.89250000  0.89250000



--------------------------------------------------------------------------------------------------------


 k-point     1 :   0.1250 0.1250 0.1250  plane waves:     332
 k-point     2 :   0.3750 0.1250 0.1250  plane waves:     331
 k-point     3 :  -0.3750 0.1250 0.1250  plane waves:     333
 k-point     4 :  -0.1250 0.1250 0.1250  plane waves:     329
 k-point     5 :   0.3750 0.3750 0.1250  plane waves:     329
 k-point     6 :  -0.3750 0.3750 0.1250  plane waves:     336
 k-point     7 :  -0.1250 0.3750 0.1250  plane waves:     333
 k-point     8 :  -0.3750-0.3750 0.1250  plane waves:     332
 k-point     9 :   0.3750 0.3750 0.3750  plane waves:     338
 k-point    10 :  -0.3750 0.3750 0.3750  plane waves:     339

 maximum and minimum number of plane-waves per node :       339      329

 maximum number of plane-waves:       339
 maximum index in each direction: 
   IXMAX=    5   IYMAX=    5   IZMAX=    4
   IXMIN=   -5   IYMIN=   -5   IZMIN=   -5


 serial   3D FFT for wavefunctions
 parallel 3D FFT for charge:
    minimum data exchange during FFTs selected (reduces bandwidth)


 total amount of memory used by VASP MPI-rank0    30939. kBytes
=======================================================================

   base      :      30000. kBytes
   nonl-proj :        228. kBytes
   fftplans  :        204. kBytes
   grid      :        388. kBytes
   one-center:          6. kBytes
   wavefun   :        113. kBytes

     INWAV:  cpu time      0.0000: real time      0.0000
 Broyden mixing: mesh for mixing (old mesh)
   NGX =  9   NGY =  9   NGZ =  9
  (NGX  = 28   NGY  = 28   NGZ  = 28)
  gives a total of    729 points

 initial charge density was supplied:
 charge density of overlapping atoms calculated
 number of electron       8.0000000 magnetization 
 keeping initial charge density in first step


--------------------------------------------------------------------------------------------------------


 Maximum index for augmentation-charges         1226 (set IRDMAX)


--------------------------------------------------------------------------------------------------------


 First call to EWALD:  gamma=   0.788
 Maximum number of real-space cells 3x 3x 3
 Maximum number of reciprocal cells 3x 3x 3

    FEWALD:  cpu time      0.0007: real time      0.0007


--------------------------------------- Ionic step        1  -------------------------------------------




--------------------------------------- Iteration      1(   1)  ---------------------------------------


    POTLOK:  cpu time      0.0040: real time      0.0040
    SETDIJ:  cpu time      0.0014: real time      0.0014
     EDDAV:  cpu time      0.0287: real time      0.0287
       DOS:  cpu time      0.0002: real time      0.0002
    --------------------------------------------
      LOOP:  cpu time      0.0342: real time      0.0342

 eigenvalue-minimisations  :   160
 total energy-change (2. order) : 0.3832104E+02  (-0.4585949E+03)
 number of electron       8.0000000 magnetization 
 augmentation part        8.0000000 magnetization 

 Free energy of the ion-electron system (eV)
  ---------------------------------------------------
  alpha Z        PSCENC =        16.84245107
  Ewald energy   TEWEN  =      -347.64704212
  -Hartree energ DENC   =       -18.21597711
  -exchange      EXHF   =         0.00000000
  -V(xc)+E(xc)   XCENC  =        28.62376238
  PAW double counting   =       216.69781520     -218.18290364
  entropy T*S    EENTRO =        -0.00120517
  eigenvalues    EBANDS =        65.89451233
  atomic energy  EATOM  =       294.30962736
  Solvation  Ediel_sol  =         0.00000000
  ---------------------------------------------------
  free energy    TOTEN  =        38.32104030 eV

  energy without entropy =       38.32224548  energy(sigma->0) =       38.32164289


--------------------------------------------------------------------------------------------------------




--------------------------------------- Iteration      1(   2)  ---------------------------------------


     EDDAV:  cpu time      0.0358: real time      0.0358
       DOS:  cpu time      0.0001: real time      0.0001
    --------------------------------------------
      LOOP:  cpu time      0.0359: real time      0.0359

 eigenvalue-minimisations  :   192
 total energy-change (2. order) :-0.5583238E+02  (-0.5402673E+02)
 number of electron       8.0000000 magnetization 
 augmentation part        8.0000000 magnetization 

 Free energy of the ion-electron system (eV)
  ---------------------------------------------------
  alpha Z        PSCENC =        16.84245107
  Ewald energy   TEWEN  =      -347.64704212
  -Hartree energ DENC   =       -18.21597711
  -exchange      EXHF   =         0.00000000
  -V(xc)+E(xc)   XCENC  =        28.62376238
  PAW double counting   =       216.69781520     -218.18290364
  entropy T*S    EENTRO =        -0.00000000
  eigenvalues    EBANDS =        10.06092496
  atomic energy  EATOM  =       294.30962736
  Solvation  Ediel_sol  =         0.00000000
  ---------------------------------------------------
  free energy    TOTEN  =       -17.51134189 eV

  energy without entropy =      -17.51134189  energy(sigma->0) =      -17.51134189


--------------------------------------------------------------------------------------------------------




--------------------------------------- Iteration      1(   3)  ---------------------------------------


     EDDAV:  cpu time      0.0485: real time      0.0485
       DOS:  cpu time      0.0001: real time      0.0001
    --------------------------------------------
      LOOP:  cpu time      0.0486: real time      0.0486

 eigenvalue-minimisations  :   248
 total energy-change (2. order) :-0.1315884E+01  (-0.1315884E+01)
 number of electron       8.0000000 magnetization 
 augmentation part        8.0000000 magnetization 

 Free energy of the ion-electron system (eV)
  ---------------------------------------------------
  alpha Z        PSCENC =        16.84245107
  Ewald energy   TEWEN  =      -347.64704212
  -Hartree energ DENC   =       -18.21597711
  -exchange      EXHF   =         0.00000000
  -V(xc)+E(xc)   XCENC  =        28.62376238
  PAW double counting   =       216.69781520     -218.18290364
  entropy T*S    EENTRO =        -0.00000000
  eigenvalues    EBANDS =         8.74504128
  atomic energy  EATOM  =       294.30962736
  Solvation  Ediel_sol  =         0.00000000
  ---------------------------------------------------
  free energy    TOTEN  =       -18.82722558 eV

  energy without entropy =      -18.82722558  energy(sigma->0) =      -18.82722558


--------------------------------------------------------------------------------------------------------




--------------------------------------- Iteration      1(   4)  ---------------------------------------


     EDDAV:  cpu time      0.0332: real time      0.0332
       DOS:  cpu time      0.0001: real time      0.0001
    --------------------------------------------
      LOOP:  cpu time      0.0333: real time      0.0333

 eigenvalue-minimisations  :   184
 total energy-change (2. order) :-0.1643247E-02  (-0.1643247E-02)
 number of electron       8.0000000 magnetization 
 augmentation part        8.0000000 magnetization 

 Free energy of the ion-electron system (eV)
  ---------------------------------------------------
  alpha Z        PSCENC =        16.84245107
  Ewald energy   TEWEN  =      -347.64704212
  -Hartree energ DENC   =       -18.21597711
  -exchange      EXHF   =         0.00000000
  -V(xc)+E(xc)   XCENC  =        28.62376238
  PAW double counting   =       216.69781520     -218.18290364
  entropy T*S    EENTRO =        -0.00000000
  eigenvalues    EBANDS =         8.74339803
  atomic energy  EATOM  =       294.30962736
  Solvation  Ediel_sol  =         0.00000000
  ---------------------------------------------------
  free energy    TOTEN  =       -18.82886882 eV

  energy without entropy =      -18.82886882  energy(sigma->0) =      -18.82886882


--------------------------------------------------------------------------------------------------------




--------------------------------------- Iteration      1(   5)  ---------------------------------------


     EDDAV:  cpu time      0.0420: real time      0.0420
       DOS:  cpu time      0.0001: real time      0.0001
    CHARGE:  cpu time      0.0016: real time      0.0016
    MIXING:  cpu time      0.0002: real time      0.0002
    --------------------------------------------
      LOOP:  cpu time      0.0439: real time      0.0439

 eigenvalue-minimisations  :   224
 total energy-change (2. order) :-0.7637240E-05  (-0.7637240E-05)
 number of electron       8.0000001 magnetization 
 augmentation part        0.3792248 magnetization 

 Broyden mixing:
  rms(total) = 0.16869E+01    rms(broyden)= 0.16869E+01
  rms(prec ) = 0.24089E+01
  weight for this iteration     100.00

 Free energy of the ion-electron system (eV)
  ---------------------------------------------------
  alpha Z        PSCENC =        16.84245107
  Ewald energy   TEWEN  =      -347.64704212
  -Hartree energ DENC   =       -18.21597711
  -exchange      EXHF   =         0.00000000
  -V(xc)+E(xc)   XCENC  =        28.62376238
  PAW double counting   =       216.69781520     -218.18290364
  entropy T*S    EENTRO =        -0.00000000
  eigenvalues    EBANDS =         8.74339040
  atomic energy  EATOM  =       294.30962736
  Solvation  Ediel_sol  =         0.00000000
  ---------------------------------------------------
  free energy    TOTEN  =       -18.82887646 eV

  energy without entropy =      -18.82887646  energy(sigma->0) =      -18.82887646


--------------------------------------------------------------------------------------------------------




--------------------------------------- Iteration      1(   6)  ---------------------------------------


    POTLOK:  cpu time      0.0038: real time      0.0038
    SETDIJ:  cpu time      0.0013: real time      0.0013
     EDDAV:  cpu time      0.0436: real time      0.0436
       DOS:  cpu time      0.0001: real time      0.0001
    CHARGE:  cpu time      0.0015: real time      0.0016
    MIXING:  cpu time      0.0002: real time      0.0002
    --------------------------------------------
      LOOP:  cpu time      0.0505: real time      0.0505

 eigenvalue-minimisations  :   232
 total energy-change (2. order) : 0.4935129E+00  (-0.3609834E-01)
 number of electron       8.0000001 magnetization 
 augmentation part        0.3601661 magnetization 

 Broyden mixing:
  rms(total) = 0.11828E+01    rms(broyden)= 0.11828E+01
  rms(prec ) = 0.15023E+01
  weight for this iteration     100.00

 eigenvalues of (default mixing * dielectric matrix)
  average eigenvalue GAMMA=   3.2595
  3.2595

 Free energy of the ion-electron system (eV)
  ---------------------------------------------------
  alpha Z        PSCENC =        16.84245107
  Ewald energy   TEWEN  =      -347.64704212
  -Hartree energ DENC   =       -21.93255028
  -exchange      EXHF   =         0.00000000
  -V(xc)+E(xc)   XCENC  =        28.96940413
  PAW double counting   =       790.22524474     -791.93780634
  entropy T*S    EENTRO =        -0.00000000
  eigenvalues    EBANDS =        12.83530793
  atomic energy  EATOM  =       294.30962736
  Solvation  Ediel_sol  =         0.00000000
  ---------------------------------------------------
  free energy    TOTEN  =       -18.33536352 eV

  energy without entropy =      -18.33536352  energy(sigma->0) =      -18.33536352


--------------------------------------------------------------------------------------------------------




--------------------------------------- Iteration      1(   7)  ---------------------------------------


    POTLOK:  cpu time      0.0038: real time      0.0038
    SETDIJ:  cpu time      0.0012: real time      0.0012
     EDDAV:  cpu time      0.0470: real time      0.0470
       DOS:  cpu time      0.0001: real time      0.0001
    CHARGE:  cpu time      0.0015: real time      0.0015
    MIXING:  cpu time      0.0002: real time      0.0002
    --------------------------------------------
      LOOP:  cpu time      0.0538: real time      0.0538

 eigenvalue-minimisations  :   248
 total energy-change (2. order) : 0.1667669E+00  (-0.5031622E-01)
 number of electron       8.0000001 magnetization 
 augmentation part        0.3384213 magnetization 

 Broyden mixing:
  rms(total) = 0.24458E+00    rms(broyden)= 0.24458E+00
  rms(prec ) = 0.28458E+00
  weight for this iteration     100.00

 eigenvalues of (default mixing * dielectric matrix)
  average eigenvalue GAMMA=   2.2345
  1.9315  2.5375

 Free energy of the ion-electron system (eV)
  ---------------------------------------------------
  alpha Z        PSCENC =        16.84245107
  Ewald energy   TEWEN  =      -347.64704212
  -Hartree energ DENC   =       -27.33645363
  -exchange      EXHF   =         0.00000000
  -V(xc)+E(xc)   XCENC  =        29.47969932
  PAW double counting   =      2660.14226983    -2662.22742582
  entropy T*S    EENTRO =        -0.00000000
  eigenvalues    EBANDS =        18.26827740
  atomic energy  EATOM  =       294.30962736
  Solvation  Ediel_sol  =         0.00000000
  ---------------------------------------------------
  free energy    TOTEN  =       -18.16859660 eV

  energy without entropy =      -18.16859660  energy(sigma->0) =      -18.16859660


--------------------------------------------------------------------------------------------------------




--------------------------------------- Iteration      1(   8)  ---------------------------------------


    POTLOK:  cpu time      0.0038: real time      0.0038
    SETDIJ:  cpu time      0.0012: real time      0.0012
     EDDAV:  cpu time      0.0399: real time      0.0399
       DOS:  cpu time      0.0001: real time      0.0001
    CHARGE:  cpu time      0.0015: real time      0.0015
    MIXING:  cpu time      0.0002: real time      0.0002
    --------------------------------------------
      LOOP:  cpu time      0.0467: real time      0.0467

 eigenvalue-minimisations  :   216
 total energy-change (2. order) : 0.3865443E-02  (-0.1003034E-02)
 number of electron       8.0000001 magnetization 
 augmentation part        0.3417408 magnetization 

 Broyden mixing:
  rms(total) = 0.13173E-01    rms(broyden)= 0.13173E-01
  rms(prec ) = 0.21285E-01
  weight for this iteration     100.00

 eigenvalues of (default mixing * dielectric matrix)
  average eigenvalue GAMMA=   1.9435
  1.1845  2.5017  2.1444

 Free energy of the ion-electron system (eV)
  ---------------------------------------------------
  alpha Z        PSCENC =        16.84245107
  Ewald energy   TEWEN  =      -347.64704212
  -Hartree energ DENC   =       -26.75219435
  -exchange      EXHF   =         0.00000000
  -V(xc)+E(xc)   XCENC  =        29.42490967
  PAW double counting   =      3016.55997868    -3018.63337513
  entropy T*S    EENTRO =        -0.00000000
  eigenvalues    EBANDS =        17.73091368
  atomic energy  EATOM  =       294.30962736
  Solvation  Ediel_sol  =         0.00000000
  ---------------------------------------------------
  free energy    TOTEN  =       -18.16473115 eV

  energy without entropy =      -18.16473115  energy(sigma->0) =      -18.16473115


--------------------------------------------------------------------------------------------------------




--------------------------------------- Iteration      1(   9)  ---------------------------------------


    POTLOK:  cpu time      0.0038: real time      0.0038
    SETDIJ:  cpu time      0.0012: real time      0.0012
     EDDAV:  cpu time      0.0434: real time      0.0434
       DOS:  cpu time      0.0001: real time      0.0001
    CHARGE:  cpu time      0.0015: real time      0.0015
    MIXING:  cpu time      0.0002: real time      0.0002
    --------------------------------------------
      LOOP:  cpu time      0.0503: real time      0.0503

 eigenvalue-minimisations  :   232
 total energy-change (2. order) : 0.1959072E-04  (-0.2067675E-04)
 number of electron       8.0000001 magnetization 
 augmentation part        0.3421290 magnetization 

 Broyden mixing:
  rms(total) = 0.38848E-02    rms(broyden)= 0.38848E-02
  rms(prec ) = 0.54190E-02
  weight for this iteration     100.00

 eigenvalues of (default mixing * dielectric matrix)
  average eigenvalue GAMMA=   1.8134
  0.9504  2.4581  2.1585  1.6866

 Free energy of the ion-electron system (eV)
  ---------------------------------------------------
  alpha Z        PSCENC =        16.84245107
  Ewald energy   TEWEN  =      -347.64704212
  -Hartree energ DENC   =       -26.67158372
  -exchange      EXHF   =         0.00000000
  -V(xc)+E(xc)   XCENC  =        29.41725536
  PAW double counting   =      3025.72775905    -3027.79724834
  entropy T*S    EENTRO =        -0.00000000
  eigenvalues    EBANDS =        17.65406979
  atomic energy  EATOM  =       294.30962736
  Solvation  Ediel_sol  =         0.00000000
  ---------------------------------------------------
  free energy    TOTEN  =       -18.16471156 eV

  energy without entropy =      -18.16471156  energy(sigma->0) =      -18.16471156


--------------------------------------------------------------------------------------------------------




--------------------------------------- Iteration      1(  10)  ---------------------------------------


    POTLOK:  cpu time      0.0038: real time      0.0038
    SETDIJ:  cpu time      0.0012: real time      0.0012
     EDDAV:  cpu time      0.0285: real time      0.0285
       DOS:  cpu time      0.0001: real time      0.0001
    CHARGE:  cpu time      0.0015: real time      0.0015
    MIXING:  cpu time      0.0002: real time      0.0002
    --------------------------------------------
      LOOP:  cpu time      0.0353: real time      0.0353

 eigenvalue-minimisations  :   160
 total energy-change (2. order) :-0.1226112E-04  (-0.6371443E-06)
 number of electron       8.0000001 magnetization 
 augmentation part        0.3421142 magnetization 

 Broyden mixing:
  rms(total) = 0.78642E-03    rms(broyden)= 0.78642E-03
  rms(prec ) = 0.16790E-02
  weight for this iteration     100.00

 eigenvalues of (default mixing * dielectric matrix)
  average eigenvalue GAMMA=   1.8848
  2.8203  2.4824  2.0565  1.0324  1.0324

 Free energy of the ion-electron system (eV)
  ---------------------------------------------------
  alpha Z        PSCENC =        16.84245107
  Ewald energy   TEWEN  =      -347.64704212
  -Hartree energ DENC   =       -26.68190143
  -exchange      EXHF   =         0.00000000
  -V(xc)+E(xc)   XCENC  =        29.41819400
  PAW double counting   =      3019.58728262    -3021.65667290
  entropy T*S    EENTRO =        -0.00000000
  eigenvalues    EBANDS =        17.66333759
  atomic energy  EATOM  =       294.30962736
  Solvation  Ediel_sol  =         0.00000000
  ---------------------------------------------------
  free energy    TOTEN  =       -18.16472382 eV

  energy without entropy =      -18.16472382  energy(sigma->0) =      -18.16472382


--------------------------------------------------------------------------------------------------------




--------------------------------------- Iteration      1(  11)  ---------------------------------------


    POTLOK:  cpu time      0.0039: real time      0.0039
    SETDIJ:  cpu time      0.0012: real time      0.0013
     EDDAV:  cpu time      0.0419: real time      0.0419
       DOS:  cpu time      0.0001: real time      0.0001
    CHARGE:  cpu time      0.0015: real time      0.0015
    MIXING:  cpu time      0.0002: real time      0.0002
    --------------------------------------------
      LOOP:  cpu time      0.0489: real time      0.0489

 eigenvalue-minimisations  :   224
 total energy-change (2. order) :-0.2184684E-05  (-0.2300981E-06)
 number of electron       8.0000001 magnetization 
 augmentation part        0.3421117 magnetization 

 Broyden mixing:
  rms(total) = 0.32526E-03    rms(broyden)= 0.32525E-03
  rms(prec ) = 0.35051E-03
  weight for this iteration     100.00

 eigenvalues of (default mixing * dielectric matrix)
  average eigenvalue GAMMA=   1.9718
  2.9617  2.4536  2.3569  2.0810  1.0139  0.9638

 Free energy of the ion-electron system (eV)
  ---------------------------------------------------
  alpha Z        PSCENC =        16.84245107
  Ewald energy   TEWEN  =      -347.64704212
  -Hartree energ DENC   =       -26.68733070
  -exchange      EXHF   =         0.00000000
  -V(xc)+E(xc)   XCENC  =        29.41869557
  PAW double counting   =      3020.50546129    -3022.57496998
  entropy T*S    EENTRO =        -0.00000000
  eigenvalues    EBANDS =        17.66838150
  atomic energy  EATOM  =       294.30962736
  Solvation  Ediel_sol  =         0.00000000
  ---------------------------------------------------
  free energy    TOTEN  =       -18.16472601 eV

  energy without entropy =      -18.16472601  energy(sigma->0) =      -18.16472601


--------------------------------------------------------------------------------------------------------




--------------------------------------- Iteration      1(  12)  ---------------------------------------


    POTLOK:  cpu time      0.0038: real time      0.0038
    SETDIJ:  cpu time      0.0012: real time      0.0012
     EDDAV:  cpu time      0.0159: real time      0.0159
       DOS:  cpu time      0.0001: real time      0.0001
    --------------------------------------------
      LOOP:  cpu time      0.0210: real time      0.0210

 eigenvalue-minimisations  :    80
 total energy-change (2. order) :-0.4258800E-07  (-0.1850189E-08)
 number of electron       8.0000001 magnetization 
 augmentation part        0.3421117 magnetization 

 Free energy of the ion-electron system (eV)
  ---------------------------------------------------
  alpha Z        PSCENC =        16.84245107
  Ewald energy   TEWEN  =      -347.64704212
  -Hartree energ DENC   =       -26.68786164
  -exchange      EXHF   =         0.00000000
  -V(xc)+E(xc)   XCENC  =        29.41874418
  PAW double counting   =      3020.30728741    -3022.37677136
  entropy T*S    EENTRO =        -0.00000000
  eigenvalues    EBANDS =        17.66883904
  atomic energy  EATOM  =       294.30962736
  Solvation  Ediel_sol  =         0.00000000
  ---------------------------------------------------
  free energy    TOTEN  =       -18.16472605 eV

  energy without entropy =      -18.16472605  energy(sigma->0) =      -18.16472605


--------------------------------------------------------------------------------------------------------




 average (electrostatic) potential at core
  the test charge radii are     0.8471
  (the norm of the test charge is              1.0000)
       1 -68.6005       2 -68.6005



 E-fermi :  10.6534     XC(G=0): -13.2108     alpha+bet :-19.1722

 val. band max:       10.5219060944   @ k =   0.1250   0.1250   0.1250
 cond. band min:      16.1612264229   @ k =  -0.3750  -0.3750   0.1250
 fundamental gap:      5.6393203285
 Fermi energy:        10.6533536398

 k-point     1 :       0.1250    0.1250    0.1250
  band No.  band energies     occupation 
      1      -9.8407      2.00000
      2       8.7613      2.00000
      3      10.5219      2.00000
      4      10.5219      2.00000
      5      17.6067      0.00000
      6      17.6067      0.00000
      7      18.0353      0.00000
      8      24.8113      0.00000

 k-point     2 :       0.3750    0.1250    0.1250
  band No.  band energies     occupation 
      1      -7.5819      2.00000
      2       3.4177      2.00000
      3       6.8120      2.00000
      4       9.3339      2.00000
      5      19.2767      0.00000
      6      19.8022      0.00000
      7      20.7691      0.00000
      8      25.2889      0.00000

 k-point     3 :      -0.3750    0.1250    0.1250
  band No.  band energies     occupation 
      1      -4.5674      2.00000
      2      -1.3638      2.00000
      3       7.0254      2.00000
      4       7.6498      2.00000
      5      18.7882      0.00000
      6      20.9751      0.00000
      7      21.4323      0.00000
      8      26.3142      0.00000

 k-point     4 :      -0.1250    0.1250    0.1250
  band No.  band energies     occupation 
      1      -8.7010      2.00000
      2       6.0904      2.00000
      3       8.2999      2.00000
      4       9.1432      2.00000
      5      17.0031      0.00000
      6      20.4914      0.00000
      7      20.5755      0.00000
      8      24.0122      0.00000

 k-point     5 :       0.3750    0.3750    0.1250
  band No.  band energies     occupation 
      1      -6.4671      2.00000
      2       3.6622      2.00000
      3       5.9557      2.00000
      4       6.3243      2.00000
      5      16.3495      0.00000
      6      20.5206      0.00000
      7      24.0236      0.00000
      8      24.0500      0.00000

 k-point     6 :      -0.3750    0.3750    0.1250
  band No.  band energies     occupation 
      1      -2.5347      2.00000
      2       0.0160      2.00000
      3       2.7728      2.00000
      4       4.8321      2.00000
      5      18.7098      0.00000
      6      22.0721      0.00000
      7      23.6704      0.00000
      8      26.0470      0.00000

 k-point     7 :      -0.1250    0.3750    0.1250
  band No.  band energies     occupation 
      1      -5.4180      2.00000
      2       1.3380      2.00000
      3       4.9006      2.00000
      4       7.0949      2.00000
      5      19.1363      0.00000
      6      20.8009      0.00000
      7      23.5326      0.00000
      8      24.4938      0.00000

 k-point     8 :      -0.3750   -0.3750    0.1250
  band No.  band energies     occupation 
      1      -3.2722      2.00000
      2       0.5117      2.00000
      3       3.8390      2.00000
      4       5.2548      2.00000
      5      16.1612      0.00000
      6      18.1912      0.00000
      7      26.7636      0.00000
      8      27.0247      0.00000

 k-point     9 :       0.3750    0.3750    0.3750
  band No.  band energies     occupation 
      1      -6.5007      2.00000
      2       0.5132      2.00000
      3       8.6449      2.00000
      4       8.6449      2.00000
      5      19.5483      0.00000
      6      19.5483      0.00000
      7      19.8526      0.00000
      8      26.5926      0.00000

 k-point    10 :      -0.3750    0.3750    0.3750
  band No.  band energies     occupation 
      1      -3.5692      2.00000
      2      -0.4001      2.00000
      3       3.4392      2.00000
      4       6.9716      2.00000
      5      18.0281      0.00000
      6      22.9147      0.00000
      7      24.3973      0.00000
      8      25.9228      0.00000


--------------------------------------------------------------------------------------------------------


 soft charge-density along one line, spin component           1
         0         1         2         3         4         5         6         7         8         9
 total charge-density along one line

 pseudopotential strength for first ion, spin component:           1
 17.679  20.805  -0.000  -0.000  -0.000  -0.000  -0.000  -0.000
 20.805  24.485  -0.000  -0.000  -0.000  -0.000  -0.000  -0.000
 -0.000  -0.000  -1.119   0.000   0.000  -1.133   0.000   0.000
 -0.000  -0.000   0.000  -1.119   0.000   0.000  -1.133   0.000
 -0.000  -0.000   0.000   0.000  -1.119   0.000   0.000  -1.133
 -0.000  -0.000  -1.133   0.000   0.000  -0.997   0.000   0.000
 -0.000  -0.000   0.000  -1.133   0.000   0.000  -0.997   0.000
 -0.000  -0.000   0.000   0.000  -1.133   0.000   0.000  -0.997
 total augmentation occupancy for first ion, spin component:           1
 18.781 -12.045  -0.000  -0.000  -0.000   0.000   0.000   0.000
-12.045   7.929   0.000   0.000   0.000  -0.000  -0.000  -0.000
 -0.000   0.000  10.026   0.000  -0.000  -5.186  -0.000   0.000
 -0.000   0.000   0.000  10.026  -0.000  -0.000  -5.186   0.000
 -0.000   0.000  -0.000  -0.000  10.026   0.000   0.000  -5.186
  0.000  -0.000  -5.186  -0.000   0.000   2.736   0.000  -0.000
  0.000  -0.000  -0.000  -5.186   0.000   0.000   2.736  -0.000
  0.000  -0.000   0.000   0.000  -5.186  -0.000  -0.000   2.736


------------------------ aborting loop because EDIFF is reached ----------------------------------------


    CHARGE:  cpu time      0.0015: real time      0.0015
    FORLOC:  cpu time      0.0001: real time      0.0001
    FORNL :  cpu time      0.0024: real time      0.0024
    STRESS:  cpu time      0.0177: real time      0.0177
    FORHAR:  cpu time      0.0009: real time      0.0009
    MIXING:  cpu time      0.0002: real time      0.0002
    OFIELD:  cpu time      0.0000: real time      0.0000

  FORCE on cell =-STRESS in cart. coord.  units (eV):
  Direction    XX          YY          ZZ          XY          YZ          ZX
  --------------------------------------------------------------------------------------
  Alpha Z    16.84245    16.84245    16.84245
  Ewald    -115.88240  -115.88240  -115.88240     0.00000     0.00000    -0.00000
  Hartree     8.89591     8.89591     8.89591     0.00000     0.00000     0.00000
  E(xc)     -29.91317   -29.91317   -29.91317     0.00000     0.00000     0.00000
  Local     -30.45709   -30.45709   -30.45709    -0.00000    -0.00000    -0.00000
  n-local    26.21619    28.36727    25.37393     0.78918    -1.02988     0.12146
  augment     8.72639     8.72639     8.72639     0.00000     0.00000     0.00000
  Kinetic   118.04892   111.00875   116.79319    -0.21880    -0.66371     0.05881
  Fock        0.00000     0.00000     0.00000     0.00000     0.00000     0.00000
  -------------------------------------------------------------------------------------
  Total       0.14818     0.14818     0.14818     0.00000    -0.00000    -0.00000
  in kB      20.87221    20.87221    20.87221     0.00000    -0.00000    -0.00000
  external pressure =       20.87 kB  Pullay stress =        0.00 kB


 VOLUME and BASIS-vectors are now :
 -----------------------------------------------------------------------------
  energy-cutoff  :      550.00
  volume of cell :       11.37
      direct lattice vectors                 reciprocal lattice vectors
     0.000000000  1.785000000  1.785000000    -0.280112045  0.280112045  0.280112045
     1.785000000  0.000000000  1.785000000     0.280112045 -0.280112045  0.280112045
     1.785000000  1.785000000  0.000000000     0.280112045  0.280112045 -0.280112045

  length of vectors
     2.524371209  2.524371209  2.524371209     0.485168293  0.485168293  0.485168293


 FORCES acting on ions
    electron-ion (+dipol)            ewald-force                    non-local-force                 convergence-correction
 -----------------------------------------------------------------------------------------------
   -.212E-06 -.212E-06 -.101E-06   -.397E-14 -.133E-14 -.370E-14   -.287E-17 -.287E-17 -.152E-16   0.190E-08 0.190E-08 0.190E-08
   0.212E-06 0.212E-06 0.101E-06   0.363E-14 0.160E-14 0.300E-14   0.863E-17 0.169E-17 0.129E-16   -.190E-08 -.190E-08 -.190E-08
 -----------------------------------------------------------------------------------------------
   -.649E-13 -.480E-13 -.465E-13   -.344E-15 0.264E-15 -.707E-15   0.576E-17 -.118E-17 -.232E-17   -.140E-14 0.362E-14 -.824E-14


 POSITION                                       TOTAL-FORCE (eV/Angst)
 -----------------------------------------------------------------------------------
      0.00000      0.00000      0.00000         0.000000     -0.000000     -0.000000
      0.89250      0.89250      0.89250        -0.000000      0.000000      0.000000
 -----------------------------------------------------------------------------------
    total drift:                               -0.000000     -0.000000     -0.000000


--------------------------------------------------------------------------------------------------------



  FREE ENERGIE OF THE ION-ELECTRON SYSTEM (eV)
  ---------------------------------------------------
  free  energy   TOTEN  =       -18.16472605 eV

  energy  without entropy=      -18.16472605  energy(sigma->0) =      -18.16472605



--------------------------------------------------------------------------------------------------------


    POTLOK:  cpu time      0.0056: real time      0.0056


--------------------------------------------------------------------------------------------------------


     LOOP+:  cpu time      0.5343: real time      0.5343
    4ORBIT:  cpu time      0.0000: real time      0.0000

 total amount of memory used by VASP MPI-rank0    30939. kBytes
=======================================================================

   base      :      30000. kBytes
   nonl-proj :        228. kBytes
   fftplans  :        204. kBytes
   grid      :        388. kBytes
   one-center:          6. kBytes
   wavefun   :        113. kBytes

  
  
 General timing and accounting informations for this job:
 ========================================================
  
                  Total CPU time used (sec):        0.805
                            User time (sec):        0.769
                          System time (sec):        0.036
                         Elapsed time (sec):        0.809
  
                   Maximum memory used (kb):       52772.
                   Average memory used (kb):          N/A
  
                          Minor page faults:         3477
                          Major page faults:            3
                 Voluntary context switches:           91
