<?xml version="1.0" encoding="ISO-8859-1"?>
<modeling>
 <generator>
  <i name="program" type="string">vasp </i>
  <i name="version" type="string">6.4.3  </i>
  <i name="subversion" type="string">19Mar24 (build Jun 11 2024 09:57:22) complex                          parallel </i>
  <i name="platform" type="string">LinuxGNU </i>
  <i name="date" type="string">2024 07 24 </i>
  <i name="time" type="string">23:31:37 </i>
 </generator>
 <incar>
  <i type="string" name="SYSTEM">SCF</i>
  <i type="int" name="ISTART">     0</i>
  <i type="string" name="PREC">N</i>
  <i type="int" name="ICHARG">     2</i>
  <i type="int" name="IBRION">     2</i>
  <i name="EDIFF">      0.00000100</i>
  <i name="EDIFFG">     -0.00100000</i>
  <i type="int" name="ISIF">     3</i>
  <i name="ENCUT">    550.00000000</i>
  <i name="POTIM">      0.10000000</i>
  <i type="int" name="ISMEAR">     0</i>
  <i name="SIGMA">      0.02500000</i>
  <i type="logical" name="LWAVE"> F  </i>
  <i type="logical" name="LCHARG"> F  </i>
 </incar>
 <primitive_cell>
  <structure name="primitive_cell" >
   <crystal>
    <varray name="basis" >
     <v>       0.00000000       1.78500000       1.78500000 </v>
     <v>       1.78500000       0.00000000       1.78500000 </v>
     <v>       1.78500000       1.78500000       0.00000000 </v>
    </varray>
    <i name="volume">     11.37482325 </i>
    <varray name="rec_basis" >
     <v>      -0.28011204       0.28011204       0.28011204 </v>
     <v>       0.28011204      -0.28011204       0.28011204 </v>
     <v>       0.28011204       0.28011204      -0.28011204 </v>
    </varray>
   </crystal>
   <varray name="positions" >
    <v>       0.00000000       0.00000000       0.00000000 </v>
    <v>       0.25000000       0.25000000       0.25000000 </v>
   </varray>
  </structure>
  <varray name="primitive_index" >
   <v type="int" >        1 </v>
   <v type="int" >        2 </v>
  </varray>
 </primitive_cell>
 <kpoints>
  <generation param="Monkhorst-Pack">
   <v type="int" name="divisions">       4        4        4 </v>
   <v name="usershift">      0.00000000       0.00000000       0.00000000 </v>
   <v name="genvec1">      0.25000000      -0.00000000       0.00000000 </v>
   <v name="genvec2">     -0.00000000       0.25000000      -0.00000000 </v>
   <v name="genvec3">      0.00000000       0.00000000       0.25000000 </v>
   <v name="shift">      0.50000000       0.50000000       0.50000000 </v>
  </generation>
  <varray name="kpointlist" >
   <v>       0.12500000       0.12500000       0.12500000 </v>
   <v>       0.37500000       0.12500000       0.12500000 </v>
   <v>      -0.37500000       0.12500000       0.12500000 </v>
   <v>      -0.12500000       0.12500000       0.12500000 </v>
   <v>       0.37500000       0.37500000       0.12500000 </v>
   <v>      -0.37500000       0.37500000       0.12500000 </v>
   <v>      -0.12500000       0.37500000       0.12500000 </v>
   <v>      -0.37500000      -0.37500000       0.12500000 </v>
   <v>       0.37500000       0.37500000       0.37500000 </v>
   <v>      -0.37500000       0.37500000       0.37500000 </v>
  </varray>
  <varray name="weights" >
   <v>       0.03125000 </v>
   <v>       0.09375000 </v>
   <v>       0.09375000 </v>
   <v>       0.09375000 </v>
   <v>       0.09375000 </v>
   <v>       0.18750000 </v>
   <v>       0.18750000 </v>
   <v>       0.09375000 </v>
   <v>       0.03125000 </v>
   <v>       0.09375000 </v>
  </varray>
 </kpoints>
 <parameters>
  <separator name="general" >
   <i type="string" name="SYSTEM">SCF</i>
   <i type="logical" name="LCOMPAT"> F  </i>
  </separator>
  <separator name="electronic" >
   <i type="string" name="PREC">n</i>
   <i name="ENMAX">    550.00000000</i>
   <i name="ENAUG">    439.24300000</i>
   <i name="EDIFF">      0.00000100</i>
   <i type="int" name="IALGO">    38</i>
   <i type="int" name="IWAVPR">    10</i>
   <i type="int" name="NBANDS">     8</i>
   <i type="int" name="NBANDSLOW">    -1</i>
   <i type="int" name="NBANDSHIGH">    -1</i>
   <i name="NELECT">      8.00000000</i>
   <i type="int" name="TURBO">     0</i>
   <i type="int" name="IRESTART">     0</i>
   <i type="int" name="NREBOOT">     0</i>
   <i type="int" name="NMIN">     0</i>
   <i name="EREF">      0.00000000</i>
   <separator name="electronic smearing" >
    <i type="int" name="ISMEAR">     0</i>
    <i name="SIGMA">      0.02500000</i>
    <i name="KSPACING">      0.50000000</i>
    <i type="logical" name="KGAMMA"> T  </i>
    <i type="logical" name="KBLOWUP"> T  </i>
   </separator>
   <separator name="electronic projectors" >
    <i type="logical" name="LREAL"> F  </i>
    <v name="ROPT">      0.00000000</v>
    <i type="int" name="LMAXPAW">  -100</i>
    <i type="int" name="LMAXMIX">     2</i>
    <i type="logical" name="NLSPLINE"> F  </i>
   </separator>
   <separator name="electronic startup" >
    <i type="int" name="ISTART">     0</i>
    <i type="int" name="ICHARG">     2</i>
    <i type="int" name="INIWAV">     1</i>
   </separator>
   <separator name="electronic spin" >
    <i type="int" name="ISPIN">     1</i>
    <i type="logical" name="LNONCOLLINEAR"> F  </i>
    <v name="MAGMOM">      1.00000000      1.00000000</v>
    <i name="NUPDOWN">     -1.00000000</i>
    <i type="logical" name="LSORBIT"> F  </i>
    <v name="SAXIS">      0.00000000      0.00000000      1.00000000</v>
    <i type="logical" name="LSPIRAL"> F  </i>
    <v name="QSPIRAL">      0.00000000      0.00000000      0.00000000</v>
    <i type="logical" name="LZEROZ"> F  </i>
   </separator>
   <separator name="electronic exchange-correlation" >
    <i type="logical" name="LASPH"> F  </i>
   </separator>
   <separator name="electronic convergence" >
    <i type="int" name="NELM">    60</i>
    <i type="int" name="NELMDL">    -5</i>
    <i type="int" name="NELMIN">     2</i>
    <i name="ENINI">    550.00000000</i>
    <separator name="electronic convergence detail" >
     <i type="logical" name="LDIAG"> T  </i>
     <i type="logical" name="LSUBROT"> F  </i>
     <i name="WEIMIN">      0.00000000</i>
     <i name="EBREAK">      0.00000003</i>
     <i name="DEPER">      0.30000000</i>
     <i type="int" name="NRMM">     4</i>
     <i name="TIME">      0.40000000</i>
    </separator>
   </separator>
   <separator name="electronic mixer" >
    <i name="AMIX">      0.40000000</i>
    <i name="BMIX">      1.00000000</i>
    <i name="AMIN">      0.10000000</i>
    <i name="AMIX_MAG">      1.60000000</i>
    <i name="BMIX_MAG">      1.00000000</i>
    <separator name="electronic mixer details" >
     <i type="int" name="IMIX">     4</i>
     <i type="logical" name="MIXFIRST"> F  </i>
     <i type="int" name="MAXMIX">   -45</i>
     <i name="WC">    100.00000000</i>
     <i type="int" name="INIMIX">     1</i>
     <i type="int" name="MIXPRE">     1</i>
     <i type="int" name="MREMOVE">     5</i>
    </separator>
   </separator>
   <separator name="electronic dipolcorrection" >
    <i type="logical" name="LDIPOL"> F  </i>
    <i type="logical" name="LMONO"> F  </i>
    <i type="int" name="IDIPOL">     0</i>
    <i name="EPSILON">      1.00000000</i>
    <v name="DIPOL">   -100.00000000   -100.00000000   -100.00000000</v>
    <i name="EFIELD">      0.00000000</i>
    <i type="logical" name="LVACPOTAV"> F  </i>
   </separator>
  </separator>
  <separator name="grids" >
   <i type="int" name="NGX">    14</i>
   <i type="int" name="NGY">    14</i>
   <i type="int" name="NGZ">    14</i>
   <i type="int" name="NGXF">    28</i>
   <i type="int" name="NGYF">    28</i>
   <i type="int" name="NGZF">    28</i>
   <i type="logical" name="ADDGRID"> F  </i>
  </separator>
  <separator name="ionic" >
   <i type="int" name="NSW">     0</i>
   <i type="int" name="IBRION">    -1</i>
   <i type="int" name="MDALGO">     0</i>
   <i type="int" name="ISIF">     3</i>
   <i name="PSTRESS">      0.00000000</i>
   <i name="EDIFFG">     -0.00100000</i>
   <i type="int" name="NFREE">     1</i>
   <i name="POTIM">      0.10000000</i>
   <i name="SMASS">     -3.00000000</i>
   <i name="SCALEE">      1.00000000</i>
  </separator>
  <separator name="ionic md" >
   <i name="TEBEG">      0.00010000</i>
   <i name="TEEND">      0.00010000</i>
   <i type="int" name="NBLOCK">     1</i>
   <i type="int" name="KBLOCK">     1</i>
   <i type="int" name="NPACO">   256</i>
   <i name="APACO">     10.00000000</i>
  </separator>
  <separator name="symmetry" >
   <i type="int" name="ISYM">     2</i>
   <i name="SYMPREC">      0.00001000</i>
  </separator>
  <separator name="dos" >
   <i type="int" name="LORBIT">     0</i>
   <v name="RWIGS">     -1.00000000</v>
   <i type="int" name="NEDOS">   301</i>
   <i name="EMIN">     10.00000000</i>
   <i name="EMAX">    -10.00000000</i>
   <i name="EFERMI">      0.00000000</i>
  </separator>
  <separator name="writing" >
   <i type="int" name="NWRITE">     2</i>
   <i type="logical" name="LWAVE"> F  </i>
   <i type="logical" name="LDOWNSAMPLE"> F  </i>
   <i type="logical" name="LCHARG"> F  </i>
   <i type="logical" name="LPARD"> F  </i>
   <i type="logical" name="LVTOT"> F  </i>
   <i type="logical" name="LVHAR"> F  </i>
   <i type="logical" name="LELF"> F  </i>
   <i type="logical" name="LOPTICS"> F  </i>
   <v name="STM">      0.00000000      0.00000000      0.00000000      0.00000000      0.00000000      0.00000000      0.00000000</v>
  </separator>
  <separator name="performance" >
   <i type="int" name="NPAR">     4</i>
   <i type="int" name="NSIM">     4</i>
   <i type="int" name="NBLK">    -1</i>
   <i type="logical" name="LPLANE"> T  </i>
   <i type="logical" name="LSCALAPACK"> T  </i>
   <i type="logical" name="LSCAAWARE"> F  </i>
   <i type="logical" name="LSCALU"> F  </i>
   <i type="logical" name="LASYNC"> F  </i>
   <i type="logical" name="LORBITALREAL"> F  </i>
  </separator>
  <separator name="miscellaneous" >
   <i type="int" name="IDIOT">     3</i>
   <i type="int" name="PHON_NSTRUCT">    -1</i>
   <i type="logical" name="LMUSIC"> F  </i>
   <v name="POMASS">     12.01100000</v>
   <v name="DARWINR">      0.00000000</v>
   <v name="DARWINV">      1.00000000</v>
   <i type="logical" name="LCORR"> T  </i>
  </separator>
  <i type="logical" name="GGA_COMPAT"> T  </i>
  <i type="logical" name="LBERRY"> F  </i>
  <i type="int" name="ICORELEVEL">     0</i>
  <i type="logical" name="LDAU"> F  </i>
  <i type="int" name="I_CONSTRAINED_M">     0</i>
  <separator name="electronic exchange-correlation" >
   <i type="string" name="GGA    ">PE</i>
   <i type="string" name="XC_C">1</i>
   <i type="int" name="VOSKOWN">     0</i>
   <i type="logical" name="LHFCALC"> F  </i>
   <i type="string" name="PRECFOCK"></i>
   <i type="logical" name="LSYMGRAD"> F  </i>
   <i type="logical" name="LHFONE"> F  </i>
   <i type="logical" name="LRHFCALC"> F  </i>
   <i type="logical" name="LTHOMAS"> F  </i>
   <i type="logical" name="LMODELHF"> F  </i>
   <i type="logical" name="LFOCKACE"> F  </i>
   <i name="ENCUT4O">     -1.00000000</i>
   <i type="int" name="EXXOEP">     0</i>
   <i type="int" name="FOURORBIT">     0</i>
   <i name="AEXX">      0.00000000</i>
   <i name="HFALPHA">      0.00000000</i>
   <i name="MCALPHA">      0.00000000</i>
   <i name="ALDAX">      1.00000000</i>
   <i name="AGGAX">      1.00000000</i>
   <i name="AMGGAX">      1.00000000</i>
   <i name="ALDAC">      1.00000000</i>
   <i name="AGGAC">      1.00000000</i>
   <i name="AMGGAC">      1.00000000</i>
   <i type="int" name="NKREDX">     1</i>
   <i type="int" name="NKREDY">     1</i>
   <i type="int" name="NKREDZ">     1</i>
   <i type="logical" name="SHIFTRED"> F  </i>
   <i type="logical" name="ODDONLY"> F  </i>
   <i type="logical" name="EVENONLY"> F  </i>
   <i type="int" name="LMAXFOCK">     0</i>
   <i type="int" name="NMAXFOCKAE">     0</i>
   <i type="logical" name="LFOCKAEDFT"> F  </i>
   <i name="HFSCREEN">      0.00000000</i>
   <i name="HFSCREENC">      0.00000000</i>
   <i type="int" name="NBANDSGWLOW">     0</i>
  </separator>
  <separator name="vdW DFT" >
   <i type="logical" name="LUSE_VDW"> F  </i>
   <i type="int" name="IVDW_NL">    -1</i>
   <i type="logical" name="LSPIN_VDW"> F  </i>
   <i name="ZAB_VDW">     -0.84910000</i>
   <i name="GAMMA_VDW">      1.39626340</i>
   <i name="ALPHA_VDW">      0.00000000</i>
   <i name="PARAM1">      0.12340000</i>
   <i name="PARAM2">      1.00000000</i>
   <i name="BPARAM">      6.30000000</i>
   <i name="CPARAM">      0.00930000</i>
  </separator>
  <separator name="model GW" >
   <i type="int" name="MODEL_GW">     0</i>
   <i name="MODEL_EPS0">      3.41244697</i>
   <i name="MODEL_ALPHA">      1.00000000</i>
  </separator>
  <separator name="linear response parameters" >
   <i type="logical" name="LEPSILON"> F  </i>
   <i type="logical" name="LRPA"> F  </i>
   <i type="logical" name="LNABLA"> F  </i>
   <i type="logical" name="LVEL"> F  </i>
   <i name="CSHIFT">      0.10000000</i>
   <i name="OMEGAMAX">     -1.00000000</i>
   <i name="DEG_THRESHOLD">      0.00200000</i>
   <i name="RTIME">     -0.10000000</i>
   <i name="WPLASMAI">      0.00000000</i>
   <v name="DFIELD">      0.00000000      0.00000000      0.00000000</v>
   <v name="WPLASMA">      0.00000000      0.00000000      0.00000000      0.00000000      0.00000000      0.00000000      0.00000000      0.00000000      0.00000000</v>
  </separator>
  <separator name="orbital magnetization" >
   <i type="logical" name="NUCIND"> F  </i>
   <v name="MAGPOS">      0.00000000      0.00000000      0.00000000</v>
   <i type="logical" name="LNICSALL"> T  </i>
   <i type="logical" name="ORBITALMAG"> F  </i>
   <i type="logical" name="LMAGBLOCH"> F  </i>
   <i type="logical" name="LCHIMAG"> F  </i>
   <i type="logical" name="LGAUGE"> T  </i>
   <i type="int" name="MAGATOM">     0</i>
   <v name="MAGDIPOL">      0.00000000      0.00000000      0.00000000</v>
   <v name="AVECCONST">      0.00000000      0.00000000      0.00000000</v>
  </separator>
  <separator name="response functions" >
   <i type="logical" name="LALL_IN_ONE"> F  </i>
   <i type="int" name="IALL_IN_ONE">    -1</i>
   <i type="int" name="NBANDS_WAVE">    -1</i>
   <i type="logical" name="LFINITE_TEMPERATURE"> F  </i>
   <i type="logical" name="LADDER"> F  </i>
   <i type="logical" name="LRPAFORCE"> F  </i>
   <i type="logical" name="LFXC"> F  </i>
   <i type="logical" name="LHARTREE"> T  </i>
   <i type="int" name="IBSE">     0</i>
   <v type="int" name="KPOINT">    -1     0     0     0</v>
   <i type="logical" name="LTCTC"> F  </i>
   <i type="logical" name="LTCTE"> F  </i>
   <i type="logical" name="LTETE"> F  </i>
   <i type="logical" name="LTRIPLET"> F  </i>
   <i type="logical" name="LFXCEPS"> F  </i>
   <i type="logical" name="LFXHEG"> F  </i>
   <i type="int" name="NATURALO">     2</i>
   <i type="logical" name="LHOLEGF"> F  </i>
   <i type="logical" name="L2ORDER"> F  </i>
   <i type="logical" name="LDMP1"> F  </i>
   <i type="logical" name="LMP2LT"> F  </i>
   <i type="logical" name="LSMP2LT"> F  </i>
   <i type="logical" name="LGWLF"> F  </i>
   <i name="ENCUTGW">     -1.60000002</i>
   <i name="ENCUTGWSOFT">     -1.60000002</i>
   <i name="ENCUTLF">     -1.00000000</i>
   <i type="logical" name="ESF_SPLINES"> F  </i>
   <i name="ESF_CONV">      0.01000000</i>
   <i type="int" name="ESF_NINTER">    15</i>
   <i type="int" name="LMAXMP2">    -1</i>
   <i name="SCISSOR">      0.00000000</i>
   <i type="int" name="NOMEGA">     0</i>
   <i type="int" name="NOMEGAR">     0</i>
   <i type="int" name="NBANDSGW">    -1</i>
   <i type="int" name="NBANDSO">    -1</i>
   <i type="int" name="NBANDSV">    -1</i>
   <i type="int" name="NELMGW">     1</i>
   <i type="int" name="NELMHF">     1</i>
   <i type="int" name="DIM">     3</i>
   <i type="int" name="IESPILON">     4</i>
   <i type="int" name="ANTIRES">     0</i>
   <i name="OMEGAMAX">    -30.00000000</i>
   <i name="OMEGAMIN">    -30.00000000</i>
   <i name="OMEGATL">   -200.00000000</i>
   <i type="int" name="OMEGAGRID">     0</i>
   <i name="CSHIFT">     -0.10000000</i>
   <i type="logical" name="LSELFENERGY"> F  </i>
   <i type="logical" name="LSPECTRAL"> F  </i>
   <i type="logical" name="LSPECTRALGW"> F  </i>
   <i type="logical" name="LSINGLES"> F  </i>
   <i type="logical" name="LFERMIGW"> F  </i>
   <i type="logical" name="ODDONLYGW"> F  </i>
   <i type="logical" name="EVENONLYGW"> F  </i>
   <i type="int" name="NKREDLFX">     1</i>
   <i type="int" name="NKREDLFY">     1</i>
   <i type="int" name="NKREDLFZ">     1</i>
   <i type="int" name="MAXMEM">  2800</i>
   <i type="int" name="TELESCOPE">     0</i>
   <i type="int" name="NTAUPAR">    -1</i>
   <i type="int" name="NOMEGAPAR">    -1</i>
   <i name="DAMP_NEWTON">      0.80000001</i>
   <i name="LAMBDA">      1.00000000</i>
  </separator>
  <separator name="External order field" >
   <i name="OFIELD_KAPPA">      0.00000000</i>
   <v name="OFIELD_K">      0.00000000      0.00000000      0.00000000</v>
   <i name="OFIELD_Q6_NEAR">      0.00000000</i>
   <i name="OFIELD_Q6_FAR">      0.00000000</i>
   <i name="OFIELD_A">      0.00000000</i>
  </separator>
  <separator name="optional k-points parameters" >
   <i type="int" name="KPOINTS_OPT_MODE">     1</i>
   <i type="logical" name="LKPOINTS_OPT"> F  </i>
  </separator>
 </parameters>
 <atominfo>
  <atoms>       2 </atoms>
  <types>       1 </types>
  <array name="atoms" >
   <dimension dim="1">ion</dimension>
   <field type="string">element</field>
   <field type="int">atomtype</field>
   <set>
    <rc><c>C </c><c>   1</c></rc>
    <rc><c>C </c><c>   1</c></rc>
   </set>
  </array>
  <array name="atomtypes" >
   <dimension dim="1">type</dimension>
   <field type="int">atomspertype</field>
   <field type="string">element</field>
   <field>mass</field>
   <field>valence</field>
   <field type="string">pseudopotential</field>
   <set>
    <rc><c>   2</c><c>C </c><c>     12.01100000</c><c>      4.00000000</c><c>  PAW_PBE C_s 06Sep2000                 </c></rc>
   </set>
  </array>
 </atominfo>
 <structure name="initialpos" >
  <crystal>
   <varray name="basis" >
    <v>       0.00000000       1.78500000       1.78500000 </v>
    <v>       1.78500000       0.00000000       1.78500000 </v>
    <v>       1.78500000       1.78500000       0.00000000 </v>
   </varray>
   <i name="volume">     11.37482325 </i>
   <varray name="rec_basis" >
    <v>      -0.28011204       0.28011204       0.28011204 </v>
    <v>       0.28011204      -0.28011204       0.28011204 </v>
    <v>       0.28011204       0.28011204      -0.28011204 </v>
   </varray>
  </crystal>
  <varray name="positions" >
   <v>       0.00000000       0.00000000       0.00000000 </v>
   <v>       0.25000000       0.25000000       0.25000000 </v>
  </varray>
  <varray name="selective"  type="logical" >
   <v type="logical" >  T  T  T </v>
   <v type="logical" >  T  T  T </v>
  </varray>
  <nose>
   <v>      -3.00000000       0.00000000       0.00010000       0.00010000 </v>
  </nose>
 </structure>
 <calculation>
  <scstep>
   <time name="dav">    0.03    0.03</time>
   <time name="total">    0.03    0.03</time>
   <energy>
    <i name="alphaZ">     16.84245107 </i>
    <i name="ewald">   -347.64704212 </i>
    <i name="hartreedc">    -18.21597711 </i>
    <i name="XCdc">     28.62376238 </i>
    <i name="pawpsdc">    216.69781520 </i>
    <i name="pawaedc">   -218.18290364 </i>
    <i name="eentropy">     -0.00120517 </i>
    <i name="bandstr">     65.89451233 </i>
    <i name="atom">    294.30962736 </i>
    <i name="e_fr_energy">     38.32104030 </i>
    <i name="e_wo_entrp">     38.32224548 </i>
    <i name="e_0_energy">     38.32164289 </i>
   </energy>
  </scstep>
  <scstep>
   <time name="dav">    0.04    0.04</time>
   <time name="total">    0.04    0.04</time>
   <energy>
    <i name="e_fr_energy">    -17.51134189 </i>
    <i name="e_wo_entrp">    -17.51134189 </i>
    <i name="e_0_energy">    -17.51134189 </i>
   </energy>
  </scstep>
  <scstep>
   <time name="dav">    0.05    0.05</time>
   <time name="total">    0.05    0.05</time>
   <energy>
    <i name="e_fr_energy">    -18.82722558 </i>
    <i name="e_wo_entrp">    -18.82722558 </i>
    <i name="e_0_energy">    -18.82722558 </i>
   </energy>
  </scstep>
  <scstep>
   <time name="dav">    0.03    0.03</time>
   <time name="total">    0.03    0.03</time>
   <energy>
    <i name="e_fr_energy">    -18.82886882 </i>
    <i name="e_wo_entrp">    -18.82886882 </i>
    <i name="e_0_energy">    -18.82886882 </i>
   </energy>
  </scstep>
  <scstep>
   <time name="dav">    0.04    0.04</time>
   <time name="total">    0.04    0.04</time>
   <energy>
    <i name="e_fr_energy">    -18.82887646 </i>
    <i name="e_wo_entrp">    -18.82887646 </i>
    <i name="e_0_energy">    -18.82887646 </i>
   </energy>
  </scstep>
  <scstep>
   <time name="dav">    0.04    0.04</time>
   <time name="total">    0.05    0.05</time>
   <energy>
    <i name="e_fr_energy">    -18.33536352 </i>
    <i name="e_wo_entrp">    -18.33536352 </i>
    <i name="e_0_energy">    -18.33536352 </i>
   </energy>
  </scstep>
  <scstep>
   <time name="dav">    0.05    0.05</time>
   <time name="total">    0.05    0.05</time>
   <energy>
    <i name="e_fr_energy">    -18.16859660 </i>
    <i name="e_wo_entrp">    -18.16859660 </i>
    <i name="e_0_energy">    -18.16859660 </i>
   </energy>
  </scstep>
  <scstep>
   <time name="dav">    0.04    0.04</time>
   <time name="total">    0.05    0.05</time>
   <energy>
    <i name="e_fr_energy">    -18.16473115 </i>
    <i name="e_wo_entrp">    -18.16473115 </i>
    <i name="e_0_energy">    -18.16473115 </i>
   </energy>
  </scstep>
  <scstep>
   <time name="dav">    0.04    0.04</time>
   <time name="total">    0.05    0.05</time>
   <energy>
    <i name="e_fr_energy">    -18.16471156 </i>
    <i name="e_wo_entrp">    -18.16471156 </i>
    <i name="e_0_energy">    -18.16471156 </i>
   </energy>
  </scstep>
  <scstep>
   <time name="dav">    0.03    0.03</time>
   <time name="total">    0.04    0.04</time>
   <energy>
    <i name="e_fr_energy">    -18.16472382 </i>
    <i name="e_wo_entrp">    -18.16472382 </i>
    <i name="e_0_energy">    -18.16472382 </i>
   </energy>
  </scstep>
  <scstep>
   <time name="dav">    0.04    0.04</time>
   <time name="total">    0.05    0.05</time>
   <energy>
    <i name="e_fr_energy">    -18.16472601 </i>
    <i name="e_wo_entrp">    -18.16472601 </i>
    <i name="e_0_energy">    -18.16472601 </i>
   </energy>
  </scstep>
  <scstep>
   <time name="dav">    0.02    0.02</time>
   <time name="total">    0.02    0.02</time>
   <energy>
    <i name="alphaZ">     16.84245107 </i>
    <i name="ewald">   -347.64704212 </i>
    <i name="hartreedc">    -26.68786164 </i>
    <i name="XCdc">     29.41874418 </i>
    <i name="pawpsdc">   3020.30728741 </i>
    <i name="pawaedc">  -3022.37677136 </i>
    <i name="eentropy">     -0.00000000 </i>
    <i name="bandstr">     17.66883904 </i>
    <i name="atom">    294.30962736 </i>
    <i name="e_fr_energy">    -18.16472605 </i>
    <i name="e_wo_entrp">    -18.16472605 </i>
    <i name="e_0_energy">    -18.16472605 </i>
   </energy>
  </scstep>
  <structure>
   <crystal>
    <varray name="basis" >
     <v>       0.00000000       1.78500000       1.78500000 </v>
     <v>       1.78500000       0.00000000       1.78500000 </v>
     <v>       1.78500000       1.78500000       0.00000000 </v>
    </varray>
    <i name="volume">     11.37482325 </i>
    <varray name="rec_basis" >
     <v>      -0.28011204       0.28011204       0.28011204 </v>
     <v>       0.28011204      -0.28011204       0.28011204 </v>
     <v>       0.28011204       0.28011204      -0.28011204 </v>
    </varray>
   </crystal>
   <varray name="positions" >
    <v>       0.00000000       0.00000000       0.00000000 </v>
    <v>       0.25000000       0.25000000       0.25000000 </v>
   </varray>
  </structure>
  <varray name="forces" >
   <v>       0.00000000      -0.00000000      -0.00000000 </v>
   <v>      -0.00000000       0.00000000       0.00000000 </v>
  </varray>
  <varray name="stress" >
   <v>      20.87220664       0.00000000      -0.00000000 </v>
   <v>       0.00000000      20.87220664      -0.00000000 </v>
   <v>       0.00000000      -0.00000000      20.87220664 </v>
  </varray>
  <energy>
   <i name="e_fr_energy">    -18.16472605 </i>
   <i name="e_wo_entrp">    -18.16472605 </i>
   <i name="e_0_energy">    -18.16472605 </i>
  </energy>
  <time name="totalsc">    0.53    0.53</time>
  <eigenvalues>
   <array>
    <dimension dim="1">band</dimension>
    <dimension dim="2">kpoint</dimension>
    <dimension dim="3">spin</dimension>
    <field>eigene</field>
    <field>occ</field>
    <set>
     <set comment="spin 1">
      <set comment="kpoint 1">
       <r>   -9.8407    1.0000 </r>
       <r>    8.7613    1.0000 </r>
       <r>   10.5219    1.0000 </r>
       <r>   10.5219    1.0000 </r>
       <r>   17.6067    0.0000 </r>
       <r>   17.6067    0.0000 </r>
       <r>   18.0353    0.0000 </r>
       <r>   24.8113    0.0000 </r>
      </set>
      <set comment="kpoint 2">
       <r>   -7.5819    1.0000 </r>
       <r>    3.4177    1.0000 </r>
       <r>    6.8120    1.0000 </r>
       <r>    9.3339    1.0000 </r>
       <r>   19.2767    0.0000 </r>
       <r>   19.8022    0.0000 </r>
       <r>   20.7691    0.0000 </r>
       <r>   25.2889    0.0000 </r>
      </set>
      <set comment="kpoint 3">
       <r>   -4.5674    1.0000 </r>
       <r>   -1.3638    1.0000 </r>
       <r>    7.0254    1.0000 </r>
       <r>    7.6498    1.0000 </r>
       <r>   18.7882    0.0000 </r>
       <r>   20.9751    0.0000 </r>
       <r>   21.4323    0.0000 </r>
       <r>   26.3142    0.0000 </r>
      </set>
      <set comment="kpoint 4">
       <r>   -8.7010    1.0000 </r>
       <r>    6.0904    1.0000 </r>
       <r>    8.2999    1.0000 </r>
       <r>    9.1432    1.0000 </r>
       <r>   17.0031    0.0000 </r>
       <r>   20.4914    0.0000 </r>
       <r>   20.5755    0.0000 </r>
       <r>   24.0122    0.0000 </r>
      </set>
      <set comment="kpoint 5">
       <r>   -6.4671    1.0000 </r>
       <r>    3.6622    1.0000 </r>
       <r>    5.9557    1.0000 </r>
       <r>    6.3243    1.0000 </r>
       <r>   16.3495    0.0000 </r>
       <r>   20.5206    0.0000 </r>
       <r>   24.0236    0.0000 </r>
       <r>   24.0500    0.0000 </r>
      </set>
      <set comment="kpoint 6">
       <r>   -2.5347    1.0000 </r>
       <r>    0.0160    1.0000 </r>
       <r>    2.7728    1.0000 </r>
       <r>    4.8321    1.0000 </r>
       <r>   18.7098    0.0000 </r>
       <r>   22.0721    0.0000 </r>
       <r>   23.6704    0.0000 </r>
       <r>   26.0470    0.0000 </r>
      </set>
      <set comment="kpoint 7">
       <r>   -5.4180    1.0000 </r>
       <r>    1.3380    1.0000 </r>
       <r>    4.9006    1.0000 </r>
       <r>    7.0949    1.0000 </r>
       <r>   19.1363    0.0000 </r>
       <r>   20.8009    0.0000 </r>
       <r>   23.5326    0.0000 </r>
       <r>   24.4938    0.0000 </r>
      </set>
      <set comment="kpoint 8">
       <r>   -3.2722    1.0000 </r>
       <r>    0.5117    1.0000 </r>
       <r>    3.8390    1.0000 </r>
       <r>    5.2548    1.0000 </r>
       <r>   16.1612    0.0000 </r>
       <r>   18.1912    0.0000 </r>
       <r>   26.7636    0.0000 </r>
       <r>   27.0247    0.0000 </r>
      </set>
      <set comment="kpoint 9">
       <r>   -6.5007    1.0000 </r>
       <r>    0.5132    1.0000 </r>
       <r>    8.6449    1.0000 </r>
       <r>    8.6449    1.0000 </r>
       <r>   19.5483    0.0000 </r>
       <r>   19.5483    0.0000 </r>
       <r>   19.8526    0.0000 </r>
       <r>   26.5926    0.0000 </r>
      </set>
      <set comment="kpoint 10">
       <r>   -3.5692    1.0000 </r>
       <r>   -0.4001    1.0000 </r>
       <r>    3.4392    1.0000 </r>
       <r>    6.9716    1.0000 </r>
       <r>   18.0281    0.0000 </r>
       <r>   22.9147    0.0000 </r>
       <r>   24.3973    0.0000 </r>
       <r>   25.9228    0.0000 </r>
      </set>
     </set>
    </set>
   </array>
  </eigenvalues>
  <separator name="orbital magnetization" >
   <v name="MAGDIPOLOUT">      0.00000000      0.00000000      0.00000000</v>
  </separator>
  <dos>
   <i name="efermi">     10.65335364 </i>
   <total>
    <array>
     <dimension dim="1">gridpoints</dimension>
     <dimension dim="2">spin</dimension>
     <field>energy</field>
     <field>total</field>
     <field>integrated</field>
     <set>
      <set comment="spin 1">
       <r>   -11.6840     0.0000     0.0000 </r>
       <r>   -11.5488     0.0000     0.0000 </r>
       <r>   -11.4137     0.0000     0.0000 </r>
       <r>   -11.2785     0.0000     0.0000 </r>
       <r>   -11.1433     0.0000     0.0000 </r>
       <r>   -11.0082     0.0000     0.0000 </r>
       <r>   -10.8730     0.0000     0.0000 </r>
       <r>   -10.7378     0.0000     0.0000 </r>
       <r>   -10.6026     0.0000     0.0000 </r>
       <r>   -10.4675     0.0000     0.0000 </r>
       <r>   -10.3323     0.0000     0.0000 </r>
       <r>   -10.1971     0.0000     0.0000 </r>
       <r>   -10.0619     0.0000     0.0000 </r>
       <r>    -9.9268     0.0000     0.0000 </r>
       <r>    -9.7916     0.4611     0.0623 </r>
       <r>    -9.6564     0.0013     0.0625 </r>
       <r>    -9.5212     0.0000     0.0625 </r>
       <r>    -9.3861     0.0000     0.0625 </r>
       <r>    -9.2509     0.0000     0.0625 </r>
       <r>    -9.1157     0.0000     0.0625 </r>
       <r>    -8.9806     0.0000     0.0625 </r>
       <r>    -8.8454     0.0000     0.0625 </r>
       <r>    -8.7102     0.4182     0.1190 </r>
       <r>    -8.5750     0.9689     0.2500 </r>
       <r>    -8.4399     0.0000     0.2500 </r>
       <r>    -8.3047     0.0000     0.2500 </r>
       <r>    -8.1695     0.0000     0.2500 </r>
       <r>    -8.0343     0.0000     0.2500 </r>
       <r>    -7.8992     0.0000     0.2500 </r>
       <r>    -7.7640     0.0000     0.2500 </r>
       <r>    -7.6288     0.0055     0.2507 </r>
       <r>    -7.4936     1.3816     0.4375 </r>
       <r>    -7.3585     0.0000     0.4375 </r>
       <r>    -7.2233     0.0000     0.4375 </r>
       <r>    -7.0881     0.0000     0.4375 </r>
       <r>    -6.9530     0.0000     0.4375 </r>
       <r>    -6.8178     0.0000     0.4375 </r>
       <r>    -6.6826     0.0000     0.4375 </r>
       <r>    -6.5474     0.0019     0.4378 </r>
       <r>    -6.4123     1.8462     0.6873 </r>
       <r>    -6.2771     0.0013     0.6875 </r>
       <r>    -6.1419     0.0000     0.6875 </r>
       <r>    -6.0067     0.0000     0.6875 </r>
       <r>    -5.8716     0.0000     0.6875 </r>
       <r>    -5.7364     0.0000     0.6875 </r>
       <r>    -5.6012     0.0000     0.6875 </r>
       <r>    -5.4661     0.0091     0.6887 </r>
       <r>    -5.3309     2.7651     1.0625 </r>
       <r>    -5.1957     0.0000     1.0625 </r>
       <r>    -5.0605     0.0000     1.0625 </r>
       <r>    -4.9254     0.0000     1.0625 </r>
       <r>    -4.7902     0.0000     1.0625 </r>
       <r>    -4.6550     0.0000     1.0625 </r>
       <r>    -4.5198     1.3821     1.2493 </r>
       <r>    -4.3847     0.0050     1.2500 </r>
       <r>    -4.2495     0.0000     1.2500 </r>
       <r>    -4.1143     0.0000     1.2500 </r>
       <r>    -3.9791     0.0000     1.2500 </r>
       <r>    -3.8440     0.0000     1.2500 </r>
       <r>    -3.7088     0.0000     1.2500 </r>
       <r>    -3.5736     0.5574     1.3253 </r>
       <r>    -3.4385     0.8297     1.4375 </r>
       <r>    -3.3033     0.0543     1.4448 </r>
       <r>    -3.1681     1.3328     1.6250 </r>
       <r>    -3.0329     0.0000     1.6250 </r>
       <r>    -2.8978     0.0000     1.6250 </r>
       <r>    -2.7626     0.0000     1.6250 </r>
       <r>    -2.6274     0.0000     1.6250 </r>
       <r>    -2.4922     2.7515     1.9969 </r>
       <r>    -2.3571     0.0227     2.0000 </r>
       <r>    -2.2219     0.0000     2.0000 </r>
       <r>    -2.0867     0.0000     2.0000 </r>
       <r>    -1.9515     0.0000     2.0000 </r>
       <r>    -1.8164     0.0000     2.0000 </r>
       <r>    -1.6812     0.0000     2.0000 </r>
       <r>    -1.5460     0.0000     2.0000 </r>
       <r>    -1.4109     0.0054     2.0007 </r>
       <r>    -1.2757     1.3817     2.1875 </r>
       <r>    -1.1405     0.0000     2.1875 </r>
       <r>    -1.0053     0.0000     2.1875 </r>
       <r>    -0.8702     0.0000     2.1875 </r>
       <r>    -0.7350     0.0000     2.1875 </r>
       <r>    -0.5998     0.0000     2.1875 </r>
       <r>    -0.4646     0.0002     2.1875 </r>
       <r>    -0.3295     1.3869     2.3750 </r>
       <r>    -0.1943     0.0000     2.3750 </r>
       <r>    -0.0591     0.0000     2.3750 </r>
       <r>     0.0761     2.7732     2.7499 </r>
       <r>     0.2112     0.0010     2.7500 </r>
       <r>     0.3464     0.0000     2.7500 </r>
       <r>     0.4816     0.0785     2.7606 </r>
       <r>     0.6167     1.7709     3.0000 </r>
       <r>     0.7519     0.0000     3.0000 </r>
       <r>     0.8871     0.0000     3.0000 </r>
       <r>     1.0223     0.0000     3.0000 </r>
       <r>     1.1574     0.0000     3.0000 </r>
       <r>     1.2926     0.0141     3.0019 </r>
       <r>     1.4278     2.7601     3.3750 </r>
       <r>     1.5630     0.0000     3.3750 </r>
       <r>     1.6981     0.0000     3.3750 </r>
       <r>     1.8333     0.0000     3.3750 </r>
       <r>     1.9685     0.0000     3.3750 </r>
       <r>     2.1036     0.0000     3.3750 </r>
       <r>     2.2388     0.0000     3.3750 </r>
       <r>     2.3740     0.0000     3.3750 </r>
       <r>     2.5092     0.0000     3.3750 </r>
       <r>     2.6443     0.0000     3.3750 </r>
       <r>     2.7795     1.8003     3.6184 </r>
       <r>     2.9147     0.9739     3.7500 </r>
       <r>     3.0499     0.0000     3.7500 </r>
       <r>     3.1850     0.0000     3.7500 </r>
       <r>     3.3202     0.0000     3.7500 </r>
       <r>     3.4554     2.5014     4.0881 </r>
       <r>     3.5906     0.2728     4.1250 </r>
       <r>     3.7257     1.3868     4.3125 </r>
       <r>     3.8609     1.2378     4.4798 </r>
       <r>     3.9961     0.1495     4.5000 </r>
       <r>     4.1312     0.0000     4.5000 </r>
       <r>     4.2664     0.0000     4.5000 </r>
       <r>     4.4016     0.0000     4.5000 </r>
       <r>     4.5368     0.0000     4.5000 </r>
       <r>     4.6719     0.0000     4.5000 </r>
       <r>     4.8071     0.2184     4.5295 </r>
       <r>     4.9423     5.3045     5.2465 </r>
       <r>     5.0775     0.0256     5.2500 </r>
       <r>     5.2126     0.0118     5.2516 </r>
       <r>     5.3478     1.3753     5.4375 </r>
       <r>     5.4830     0.0000     5.4375 </r>
       <r>     5.6182     0.0000     5.4375 </r>
       <r>     5.7533     0.0000     5.4375 </r>
       <r>     5.8885     0.0001     5.4375 </r>
       <r>     6.0237     1.3870     5.6250 </r>
       <r>     6.1588     1.3869     5.8125 </r>
       <r>     6.2940     0.0603     5.8207 </r>
       <r>     6.4292     1.3268     6.0000 </r>
       <r>     6.5644     0.0000     6.0000 </r>
       <r>     6.6995     0.0000     6.0000 </r>
       <r>     6.8347     1.2488     6.1688 </r>
       <r>     6.9699     0.7789     6.2741 </r>
       <r>     7.1051     4.1245     6.8316 </r>
       <r>     7.2402     0.7833     6.9375 </r>
       <r>     7.3754     0.0000     6.9375 </r>
       <r>     7.5106     0.0000     6.9375 </r>
       <r>     7.6457     0.5690     7.0144 </r>
       <r>     7.7809     0.8182     7.1250 </r>
       <r>     7.9161     0.0000     7.1250 </r>
       <r>     8.0513     0.0000     7.1250 </r>
       <r>     8.1864     0.0000     7.1250 </r>
       <r>     8.3216     1.2351     7.2919 </r>
       <r>     8.4568     0.1520     7.3125 </r>
       <r>     8.5920     0.0013     7.3127 </r>
       <r>     8.7271     0.9359     7.4392 </r>
       <r>     8.8623     0.4500     7.5000 </r>
       <r>     8.9975     0.0000     7.5000 </r>
       <r>     9.1327     0.3828     7.5517 </r>
       <r>     9.2678     1.0044     7.6875 </r>
       <r>     9.4030     1.3869     7.8750 </r>
       <r>     9.5382     0.0000     7.8750 </r>
       <r>     9.6733     0.0000     7.8750 </r>
       <r>     9.8085     0.0000     7.8750 </r>
       <r>     9.9437     0.0000     7.8750 </r>
       <r>    10.0789     0.0000     7.8750 </r>
       <r>    10.2140     0.0000     7.8750 </r>
       <r>    10.3492     0.0000     7.8750 </r>
       <r>    10.4844     0.0156     7.8771 </r>
       <r>    10.6196     0.9091     8.0000 </r>
       <r>    10.7547     0.0000     8.0000 </r>
       <r>    10.8899     0.0000     8.0000 </r>
       <r>    11.0251     0.0000     8.0000 </r>
       <r>    11.1603     0.0000     8.0000 </r>
       <r>    11.2954     0.0000     8.0000 </r>
       <r>    11.4306     0.0000     8.0000 </r>
       <r>    11.5658     0.0000     8.0000 </r>
       <r>    11.7009     0.0000     8.0000 </r>
       <r>    11.8361     0.0000     8.0000 </r>
       <r>    11.9713     0.0000     8.0000 </r>
       <r>    12.1065     0.0000     8.0000 </r>
       <r>    12.2416     0.0000     8.0000 </r>
       <r>    12.3768     0.0000     8.0000 </r>
       <r>    12.5120     0.0000     8.0000 </r>
       <r>    12.6472     0.0000     8.0000 </r>
       <r>    12.7823     0.0000     8.0000 </r>
       <r>    12.9175     0.0000     8.0000 </r>
       <r>    13.0527     0.0000     8.0000 </r>
       <r>    13.1879     0.0000     8.0000 </r>
       <r>    13.3230     0.0000     8.0000 </r>
       <r>    13.4582     0.0000     8.0000 </r>
       <r>    13.5934     0.0000     8.0000 </r>
       <r>    13.7285     0.0000     8.0000 </r>
       <r>    13.8637     0.0000     8.0000 </r>
       <r>    13.9989     0.0000     8.0000 </r>
       <r>    14.1341     0.0000     8.0000 </r>
       <r>    14.2692     0.0000     8.0000 </r>
       <r>    14.4044     0.0000     8.0000 </r>
       <r>    14.5396     0.0000     8.0000 </r>
       <r>    14.6748     0.0000     8.0000 </r>
       <r>    14.8099     0.0000     8.0000 </r>
       <r>    14.9451     0.0000     8.0000 </r>
       <r>    15.0803     0.0000     8.0000 </r>
       <r>    15.2154     0.0000     8.0000 </r>
       <r>    15.3506     0.0000     8.0000 </r>
       <r>    15.4858     0.0000     8.0000 </r>
       <r>    15.6210     0.0000     8.0000 </r>
       <r>    15.7561     0.0000     8.0000 </r>
       <r>    15.8913     0.0000     8.0000 </r>
       <r>    16.0265     0.0000     8.0000 </r>
       <r>    16.1617     0.7072     8.0956 </r>
       <r>    16.2968     0.6819     8.1878 </r>
       <r>    16.4320     1.3851     8.3750 </r>
       <r>    16.5672     0.0000     8.3750 </r>
       <r>    16.7024     0.0000     8.3750 </r>
       <r>    16.8375     0.0000     8.3750 </r>
       <r>    16.9727     0.0593     8.3830 </r>
       <r>    17.1079     1.3278     8.5625 </r>
       <r>    17.2430     0.0000     8.5625 </r>
       <r>    17.3782     0.0000     8.5625 </r>
       <r>    17.5134     0.0000     8.5625 </r>
       <r>    17.6486     0.9165     8.6864 </r>
       <r>    17.7837     0.0082     8.6875 </r>
       <r>    17.9189     0.0000     8.6875 </r>
       <r>    18.0541     1.6849     8.9153 </r>
       <r>    18.1893     0.7968     9.0230 </r>
       <r>    18.3244     0.7549     9.1250 </r>
       <r>    18.4596     0.0000     9.1250 </r>
       <r>    18.5948     0.0000     9.1250 </r>
       <r>    18.7300     2.4212     9.4523 </r>
       <r>    18.8651     1.7401     9.6875 </r>
       <r>    19.0003     0.0000     9.6875 </r>
       <r>    19.1355     1.3368     9.8682 </r>
       <r>    19.2706     1.9444    10.1310 </r>
       <r>    19.4058     0.8801    10.2500 </r>
       <r>    19.5410     0.3133    10.2923 </r>
       <r>    19.6762     0.6115    10.3750 </r>
       <r>    19.8113     0.9730    10.5065 </r>
       <r>    19.9465     0.8765    10.6250 </r>
       <r>    20.0817     0.0000    10.6250 </r>
       <r>    20.2169     0.0000    10.6250 </r>
       <r>    20.3520     0.0000    10.6250 </r>
       <r>    20.4872     0.6051    10.7068 </r>
       <r>    20.6224     3.5507    11.1868 </r>
       <r>    20.7576     0.3816    11.2383 </r>
       <r>    20.8927     3.7853    11.7500 </r>
       <r>    21.0279     1.3852    11.9372 </r>
       <r>    21.1631     0.0020    11.9375 </r>
       <r>    21.2982     0.0000    11.9375 </r>
       <r>    21.4334     0.7277    12.0359 </r>
       <r>    21.5686     0.6594    12.1250 </r>
       <r>    21.7038     0.0000    12.1250 </r>
       <r>    21.8389     0.0000    12.1250 </r>
       <r>    21.9741     0.0000    12.1250 </r>
       <r>    22.1093     2.7254    12.4934 </r>
       <r>    22.2445     0.0488    12.5000 </r>
       <r>    22.3796     0.0000    12.5000 </r>
       <r>    22.5148     0.0000    12.5000 </r>
       <r>    22.6500     0.0000    12.5000 </r>
       <r>    22.7851     0.0000    12.5000 </r>
       <r>    22.9203     0.8658    12.6170 </r>
       <r>    23.0555     0.5213    12.6875 </r>
       <r>    23.1907     0.0000    12.6875 </r>
       <r>    23.3258     0.0000    12.6875 </r>
       <r>    23.4610     0.0001    12.6875 </r>
       <r>    23.5962     2.7737    13.0624 </r>
       <r>    23.7314     2.7739    13.4374 </r>
       <r>    23.8665     0.0008    13.4375 </r>
       <r>    24.0017     0.5368    13.5101 </r>
       <r>    24.1369     3.6245    14.0000 </r>
       <r>    24.2721     0.0000    14.0000 </r>
       <r>    24.4072     0.9890    14.1337 </r>
       <r>    24.5424     3.1641    14.5614 </r>
       <r>    24.6776     0.0082    14.5625 </r>
       <r>    24.8127     0.2459    14.5957 </r>
       <r>    24.9479     0.2165    14.6250 </r>
       <r>    25.0831     0.0000    14.6250 </r>
       <r>    25.2183     0.0000    14.6250 </r>
       <r>    25.3534     1.3869    14.8125 </r>
       <r>    25.4886     0.0002    14.8125 </r>
       <r>    25.6238     0.0000    14.8125 </r>
       <r>    25.7590     0.0000    14.8125 </r>
       <r>    25.8941     0.0731    14.8224 </r>
       <r>    26.0293     1.7553    15.0596 </r>
       <r>    26.1645     2.3329    15.3750 </r>
       <r>    26.2997     0.2850    15.4135 </r>
       <r>    26.4348     1.1021    15.5625 </r>
       <r>    26.5700     0.0463    15.5688 </r>
       <r>    26.7052     0.4167    15.6251 </r>
       <r>    26.8403     1.3864    15.8125 </r>
       <r>    26.9755     0.0038    15.8130 </r>
       <r>    27.1107     1.3833    16.0000 </r>
       <r>    27.2459     0.0000    16.0000 </r>
       <r>    27.3810     0.0000    16.0000 </r>
       <r>    27.5162     0.0000    16.0000 </r>
       <r>    27.6514     0.0000    16.0000 </r>
       <r>    27.7866     0.0000    16.0000 </r>
       <r>    27.9217     0.0000    16.0000 </r>
       <r>    28.0569     0.0000    16.0000 </r>
       <r>    28.1921     0.0000    16.0000 </r>
       <r>    28.3273     0.0000    16.0000 </r>
       <r>    28.4624     0.0000    16.0000 </r>
       <r>    28.5976     0.0000    16.0000 </r>
       <r>    28.7328     0.0000    16.0000 </r>
       <r>    28.8679     0.0000    16.0000 </r>
      </set>
     </set>
    </array>
   </total>
  </dos>
 </calculation>
 <structure name="finalpos" >
  <crystal>
   <varray name="basis" >
    <v>       0.00000000       1.78500000       1.78500000 </v>
    <v>       1.78500000       0.00000000       1.78500000 </v>
    <v>       1.78500000       1.78500000       0.00000000 </v>
   </varray>
   <i name="volume">     11.37482325 </i>
   <varray name="rec_basis" >
    <v>      -0.28011204       0.28011204       0.28011204 </v>
    <v>       0.28011204      -0.28011204       0.28011204 </v>
    <v>       0.28011204       0.28011204      -0.28011204 </v>
   </varray>
  </crystal>
  <varray name="positions" >
   <v>       0.00000000       0.00000000       0.00000000 </v>
   <v>       0.25000000       0.25000000       0.25000000 </v>
  </varray>
  <varray name="selective"  type="logical" >
   <v type="logical" >  T  T  T </v>
   <v type="logical" >  T  T  T </v>
  </varray>
  <nose>
   <v>      -3.00000000       0.00000000       0.00010000       0.00010000 </v>
  </nose>
 </structure>
</modeling>
