SCF                                     
           1
     0.000000    1.785000    1.785000
     1.785000    0.000000    1.785000
     1.785000    1.785000    0.000000
   C 
     2
Direct configuration=     1
   0.00000000  0.00000000  0.00000000
   0.25000000  0.25000000  0.25000000
