 vasp.5.4.4.18Apr17-6-g9f103f2a35 (build Apr 23 2020 11:10:06) complex          
  
 executed on             LinuxIFC date 2023.06.09  18:19:16
 running on    2 total cores
 distrk:  each k-point on    2 cores,    1 groups
 distr:  one band on NCORES_PER_BAND=   1 cores,    2 groups


--------------------------------------------------------------------------------------------------------


 INCAR:
 POTCAR:    US C                                  
 POTCAR:    US C                                  
   VRHFIN =C: s2p2                                                              
   LEXCH  = 91                                                                  
   EATOM  =   146.0548 eV,   10.7347 Ry                                         
   TITEL  = US C                                                                
   LULTRA =        T    use ultrasoft PP ?                                      
   IUNSCR =        0    unscreen: 0-lin 1-nonlin 2-no                           
   RPACOR =     .000    partial core radius                                     
   POMASS =   12.011; ZVAL   =    4.000    mass and valenz                      
   RCORE  =    1.810    outmost cutoff radius                                   
   RWIGS  =    1.630; RWIGS  =     .863    wigner-seitz radius (au A)           
   ENMAX  =  286.744; ENMIN  =  215.058 eV                                      
   EAUG   =  550.000                                                            
                                                                                
   ICORE  =        2    local potential                                         
   LCOR   =        T    correct aug charges                                     
   RMAX   =    2.723    core radius for proj-oper                               
   QCUT   =   -4.591; QGAM   =    9.182    optimization parameters              
                                                                                
   Description                                                                  
     l     E      TYP  RCUT    TYP  RCUT                                        
     0   .000     15  1.320    23  1.630                                        
     0   .000     15  1.320    23  1.630                                        
     1   .000     15  1.320    23  1.810                                        
     1   .000     15  1.320    23  1.810                                        
     2   .000      7  1.810     7  1.810                                        
  local pseudopotential read in
  atomic valenz-charges read in
  non local Contribution for L=           0  read in
    real space projection operators read in
  non local Contribution for L=           0  read in
    real space projection operators read in
  non local Contribution for L=           1  read in
    real space projection operators read in
  non local Contribution for L=           1  read in
    real space projection operators read in
    augmentation charges read in
 
   number of l-projection  operators is LMAX  =           4
   number of lm-projection operators is LMMAX =           8
 

 ----------------------------------------------------------------------------- 
|                                                                             |
|  ADVICE TO THIS USER RUNNING 'VASP/VAMP'   (HEAR YOUR MASTER'S VOICE ...):  |
|                                                                             |
|      You have a (more or less) 'small supercell' and for smaller cells      |
|      it is recommended  to use the reciprocal-space projection scheme!      |
|      The real space optimization is not  efficient for small cells and it   |
|      is also less accurate ...                                              |
|      Therefore set LREAL=.FALSE. in the  INCAR file                         |
|                                                                             |
 ----------------------------------------------------------------------------- 

 Optimization of the real space projectors (new method)

 maximal supplied QI-value         = 20.79
 optimisation between [QCUT,QGAM] = [ 10.19, 20.37] = [ 29.05,116.21] Ry 
 Optimized for a Real-space Cutoff    1.30 Angstroem

   l    n(q)    QCUT    max X(q) W(low)/X(q) W(high)/X(q)  e(spline) 
   0      8    10.186     3.198    0.26E-03    0.27E-03    0.10E-06
   0      8    10.186     4.320    0.35E-03    0.33E-03    0.15E-06
   1      7    10.186     4.119    0.10E-03    0.23E-03    0.12E-06
   1      7    10.186     0.834    0.97E-04    0.29E-03    0.16E-06
  US C                                  :
 energy of atom  1       EATOM= -146.0548
 kinetic energy error for atom=    0.0047 (will be added to EATOM!!)
 
 
 POSCAR: graphene                                
  positions in direct lattice
  velocities in cartesian coordinates
 exchange correlation table for  LEXCH =        7
   RHO(1)=    0.500       N(1)  =     2000
   RHO(2)=  100.500       N(2)  =     4000
 


--------------------------------------------------------------------------------------------------------


 ion  position               nearest neighbor table
   1  0.100  0.100  0.500-   2 1.40   2 1.42   2 1.45
   2  0.422  0.766  0.520-   1 1.40   1 1.42   1 1.45
 
  LATTYP: Found a hexagonal cell.
 ALAT       =     2.4410462393
 C/A-ratio  =     4.0966040868
  
  Lattice vectors:
  
 A1 = (   2.4410462393,   0.0000000000,   0.0000000000)
 A2 = (  -1.2205231197,   2.1140080551,   0.0000000000)
 A3 = (   0.0000000000,   0.0000000000,  10.0000000000)


Analysis of symmetry for initial positions (statically):
=====================================================================
 Subroutine PRICEL returns:
 Original cell was already a primitive cell.
 

 Routine SETGRP: Setting up the symmetry group for a 
 hexagonal supercell.


 Subroutine GETGRP returns: Found  2 space group operations
 (whereof  1 operations were pure point group operations)
 out of a pool of 24 trial point group operations.


The static configuration has the point symmetry C_1 .
 The point group associated with its full space group is S_2 .


Analysis of symmetry for dynamics (positions and initial velocities):
=====================================================================
 Subroutine PRICEL returns:
 Original cell was already a primitive cell.
 

 Routine SETGRP: Setting up the symmetry group for a 
 hexagonal supercell.


 Subroutine GETGRP returns: Found  2 space group operations
 (whereof  1 operations were pure point group operations)
 out of a pool of 24 trial point group operations.


The dynamic configuration has the point symmetry C_1 .
 The point group associated with its full space group is S_2 .


 Subroutine INISYM returns: Found  2 space group operations
 (whereof  1 operations are pure point group operations),
 and found     1 'primitive' translations

 
 
 KPOINTS: K-Points                                

Automatic generation of k-mesh.
Space group operators:
 irot       det(A)        alpha          n_x          n_y          n_z        tau_x        tau_y        tau_z
    1     1.000000     0.000000     1.000000     0.000000     0.000000     0.000000     0.000000     0.000000
    2    -1.000000     0.000000     1.000000     0.000000     0.000000     0.522000     0.866000     0.020000
 
 Subroutine IBZKPT returns following result:
 ===========================================
 
 Found     41 irreducible k-points:
 
 Following reciprocal coordinates:
            Coordinates               Weight
  0.000000  0.000000  0.000000      1.000000
  0.111111 -0.000000  0.000000      2.000000
  0.222222 -0.000000  0.000000      2.000000
  0.333333  0.000000  0.000000      2.000000
  0.444444 -0.000000  0.000000      2.000000
  0.000000  0.111111  0.000000      2.000000
  0.111111  0.111111  0.000000      2.000000
  0.222222  0.111111  0.000000      2.000000
  0.333333  0.111111  0.000000      2.000000
  0.444444  0.111111  0.000000      2.000000
 -0.444444  0.111111  0.000000      2.000000
 -0.333333  0.111111  0.000000      2.000000
 -0.222222  0.111111  0.000000      2.000000
 -0.111111  0.111111  0.000000      2.000000
  0.000000  0.222222  0.000000      2.000000
  0.111111  0.222222  0.000000      2.000000
  0.222222  0.222222  0.000000      2.000000
  0.333333  0.222222  0.000000      2.000000
  0.444444  0.222222  0.000000      2.000000
 -0.444444  0.222222  0.000000      2.000000
 -0.333333  0.222222  0.000000      2.000000
 -0.222222  0.222222  0.000000      2.000000
 -0.111111  0.222222  0.000000      2.000000
  0.000000  0.333333  0.000000      2.000000
  0.111111  0.333333  0.000000      2.000000
  0.222222  0.333333  0.000000      2.000000
  0.333333  0.333333  0.000000      2.000000
  0.444444  0.333333  0.000000      2.000000
 -0.444444  0.333333  0.000000      2.000000
 -0.333333  0.333333  0.000000      2.000000
 -0.222222  0.333333  0.000000      2.000000
 -0.111111  0.333333  0.000000      2.000000
  0.000000  0.444444  0.000000      2.000000
  0.111111  0.444444  0.000000      2.000000
  0.222222  0.444444  0.000000      2.000000
  0.333333  0.444444  0.000000      2.000000
  0.444444  0.444444  0.000000      2.000000
 -0.444444  0.444444  0.000000      2.000000
 -0.333333  0.444444  0.000000      2.000000
 -0.222222  0.444444  0.000000      2.000000
 -0.111111  0.444444  0.000000      2.000000
 
 Following cartesian coordinates:
            Coordinates               Weight
  0.000000  0.000000  0.000000      1.000000
  0.045518  0.026280  0.000000      2.000000
  0.091036  0.052559  0.000000      2.000000
  0.136553  0.078839  0.000000      2.000000
  0.182071  0.105119  0.000000      2.000000
  0.000000  0.052559  0.000000      2.000000
  0.045518  0.078839  0.000000      2.000000
  0.091036  0.105119  0.000000      2.000000
  0.136553  0.131399  0.000000      2.000000
  0.182071  0.157678  0.000000      2.000000
 -0.182071 -0.052559  0.000000      2.000000
 -0.136553 -0.026280  0.000000      2.000000
 -0.091036 -0.000000  0.000000      2.000000
 -0.045518  0.026280  0.000000      2.000000
  0.000000  0.105119  0.000000      2.000000
  0.045518  0.131399  0.000000      2.000000
  0.091036  0.157678  0.000000      2.000000
  0.136553  0.183958  0.000000      2.000000
  0.182071  0.210238  0.000000      2.000000
 -0.182071 -0.000000  0.000000      2.000000
 -0.136553  0.026280  0.000000      2.000000
 -0.091036  0.052559  0.000000      2.000000
 -0.045518  0.078839  0.000000      2.000000
  0.000000  0.157678  0.000000      2.000000
  0.045518  0.183958  0.000000      2.000000
  0.091036  0.210238  0.000000      2.000000
  0.136553  0.236518  0.000000      2.000000
  0.182071  0.262797  0.000000      2.000000
 -0.182071  0.052559  0.000000      2.000000
 -0.136553  0.078839  0.000000      2.000000
 -0.091036  0.105119  0.000000      2.000000
 -0.045518  0.131399  0.000000      2.000000
  0.000000  0.210238  0.000000      2.000000
  0.045518  0.236518  0.000000      2.000000
  0.091036  0.262797  0.000000      2.000000
  0.136553  0.289077  0.000000      2.000000
  0.182071  0.315357  0.000000      2.000000
 -0.182071  0.105119  0.000000      2.000000
 -0.136553  0.131399  0.000000      2.000000
 -0.091036  0.157678  0.000000      2.000000
 -0.045518  0.183958  0.000000      2.000000
 


--------------------------------------------------------------------------------------------------------




 Dimension of arrays:
   k-points           NKPTS =     41   k-points in BZ     NKDIM =     41   number of bands    NBANDS=      8
   number of dos      NEDOS =    301   number of ions     NIONS =      2
   non local maximal  LDIM  =      4   non local SUM 2l+1 LMDIM =      8
   total plane-waves  NPLWV =   7200
   max r-space proj   IRMAX =   1337   max aug-charges    IRDMAX=   4577
   dimension x,y,z NGX =    12 NGY =   12 NGZ =   50
   dimension x,y,z NGXF=    24 NGYF=   24 NGZF=  100
   support grid    NGXF=    24 NGYF=   24 NGZF=  100
   ions per type =               2
   NGX,Y,Z   is equivalent  to a cutoff of   8.17,  8.17,  8.31 a.u.
   NGXF,Y,Z  is equivalent  to a cutoff of  16.35, 16.35, 16.62 a.u.

 SYSTEM =  unknown system                          
 POSCAR =  graphene                                

 Startparameter for this run:
   NWRITE =      2    write-flag & timer
   PREC   = normal    normal or accurate (medium, high low for compatibility)
   ISTART =      0    job   : 0-new  1-cont  2-samecut
   ICHARG =      2    charge: 1-file 2-atom 10-const
   ISPIN  =      1    spin polarized calculation?
   LNONCOLLINEAR =      F non collinear calculations
   LSORBIT =      F    spin-orbit coupling
   INIWAV =      1    electr: 0-lowe 1-rand  2-diag
   LASPH  =      F    aspherical Exc in radial PAW
   METAGGA=      F    non-selfconsistent MetaGGA calc.

 Electronic Relaxation 1
   ENCUT  =  400.0 eV  29.40 Ry    5.42 a.u.   3.98  3.98 16.31*2*pi/ulx,y,z
   ENINI  =  400.0     initial cutoff
   ENAUG  =  550.0 eV  augmentation charge cutoff
   NELM   =     60;   NELMIN=  2; NELMDL=  0     # of ELM steps 
   EDIFF  = 0.1E-03   stopping-criterion for ELM
   LREAL  =      T    real-space projection
   NLSPLINE    = F    spline interpolate recip. space projectors
   LCOMPAT=      F    compatible to vasp.4.4
   GGA_COMPAT  = T    GGA compatible to vasp.4.4-vasp.4.6
   LMAXPAW     = -100 max onsite density
   LMAXMIX     =    2 max onsite mixed and CHGCAR
   VOSKOWN=      0    Vosko Wilk Nusair interpolation
   ROPT   =   -0.00050
 Ionic relaxation
   EDIFFG = 0.1E-02   stopping-criterion for IOM
   NSW    =    100    number of steps for IOM
   NBLOCK =      1;   KBLOCK =    100    inner block; outer block 
   IBRION =      0    ionic relax: 0-MD 1-quasi-New 2-CG
   NFREE  =      0    steps in history (QN), initial steepest desc. (CG)
   ISIF   =      0    stress and relaxation
   IWAVPR =     12    prediction:  0-non 1-charg 2-wave 3-comb
   ISYM   =      1    0-nonsym 1-usesym 2-fastsym
   LCORR  =      T    Harris-Foulkes like correction to forces

   POTIM  = 0.1000    time-step for ionic-motion
   TEIN   =    0.0    initial temperature
   TEBEG  =  300.0;   TEEND  = 300.0 temperature during run
   SMASS  =  -3.00    Nose mass-parameter (am)
   estimated Nose-frequenzy (Omega)   =  0.10E-29 period in steps =****** mass=  -0.136E-27a.u.
   SCALEE = 1.0000    scale energy and forces
   NPACO  =    256;   APACO  = 16.0  distance and # of slots for P.C.
   PSTRESS=    0.0 pullay stress

  Mass of Ions in am
   POMASS =  12.01
  Ionic Valenz
   ZVAL   =   4.00
  Atomic Wigner-Seitz radii
   RWIGS  =  -1.00
  virtual crystal weights 
   VCA    =   1.00
   NELECT =       8.0000    total number of electrons
   NUPDOWN=      -1.0000    fix difference up-down

 DOS related values:
   EMIN   =  10.00;   EMAX   =-10.00  energy-range for DOS
   EFERMI =   0.00
   ISMEAR =     1;   SIGMA  =   0.20  broadening in eV -4-tet -1-fermi 0-gaus

 Electronic relaxation 2 (details)
   IALGO  =     38    algorithm
   LDIAG  =      T    sub-space diagonalisation (order eigenvalues)
   LSUBROT=      F    optimize rotation matrix (better conditioning)
   TURBO    =      0    0=normal 1=particle mesh
   IRESTART =      0    0=no restart 2=restart with 2 vectors
   NREBOOT  =      0    no. of reboots
   NMIN     =      0    reboot dimension
   EREF     =   0.00    reference energy to select bands
   IMIX   =      4    mixing-type and parameters
     AMIX     =   0.80;   BMIX     =  1.00
     AMIX_MAG =   3.20;   BMIX_MAG =  1.00
     AMIN     =   0.10
     WC   =   100.;   INIMIX=   1;  MIXPRE=   1;  MAXMIX= -45

 Intra band minimization:
   WEIMIN = 0.0010     energy-eigenvalue tresh-hold
   EBREAK =  0.31E-05  absolut break condition
   DEPER  =   0.30     relativ break condition  

   TIME   =   0.40     timestep for ELM

  volume/ion in A,a.u.               =      25.80       174.12
  Fermi-wavevector in a.u.,A,eV,Ry     =   0.879449  1.661917 10.523159  0.773430
  Thomas-Fermi vector in A             =   1.999674
 
 Write flags
   LWAVE        =      F    write WAVECAR
   LDOWNSAMPLE  =      F    k-point downsampling of WAVECAR
   LCHARG       =      F    write CHGCAR
   LVTOT        =      F    write LOCPOT, total local potential
   LVHAR        =      F    write LOCPOT, Hartree potential only
   LELF         =      F    write electronic localiz. function (ELF)
   LORBIT       =      0    0 simple, 1 ext, 2 COOP (PROOUT), +10 PAW based schemes


 Dipole corrections
   LMONO  =      F    monopole corrections only (constant potential shift)
   LDIPOL =      F    correct potential (dipole corrections)
   IDIPOL =      0    1-x, 2-y, 3-z, 4-all directions 
   EPSILON=  1.0000000 bulk dielectric constant

 Exchange correlation treatment:
   GGA     =    --    GGA type
   LEXCH   =     7    internal setting for exchange type
   VOSKOWN=      0    Vosko Wilk Nusair interpolation
   LHFCALC =     F    Hartree Fock is set to
   LHFONE  =     F    Hartree Fock one center treatment
   AEXX    =    0.0000 exact exchange contribution

 Linear response parameters
   LEPSILON=     F    determine dielectric tensor
   LRPA    =     F    only Hartree local field effects (RPA)
   LNABLA  =     F    use nabla operator in PAW spheres
   LVEL    =     F    velocity operator in full k-point grid
   LINTERFAST=   F  fast interpolation
   KINTER  =     0    interpolate to denser k-point grid
   CSHIFT  =0.1000    complex shift for real part using Kramers Kronig
   OMEGAMAX=  -1.0    maximum frequency
   DEG_THRESHOLD= 0.2000000E-02 threshold for treating states as degnerate
   RTIME   =   -0.100 relaxation time in fs
  (WPLASMAI=    0.000 imaginary part of plasma frequency in eV, 0.658/RTIME)
   DFIELD  = 0.0000000 0.0000000 0.0000000 field for delta impulse in time
 
 Orbital magnetization related:
   ORBITALMAG=     F  switch on orbital magnetization
   LCHIMAG   =     F  perturbation theory with respect to B field
   DQ        =  0.001000  dq finite difference perturbation B field
   LLRAUG    =     F  two centre corrections for induced B field



--------------------------------------------------------------------------------------------------------


 molecular dynamics for ions
   using a microcanonical ensemble
 charge density and potential will be updated during run
 non-spin polarized calculation
 Variant of blocked Davidson
 Davidson routine will perform the subspace rotation
 perform sub-space diagonalisation
    after iterative eigenvector-optimisation
 modified Broyden-mixing scheme, WC =      100.0
 initial mixing is a Kerker type mixing with AMIX =  0.8000 and BMIX =      1.0000
 Hartree-type preconditioning will be used
 using additional bands            4
 real space projection scheme for non local part
 calculate Harris-corrections to forces 
   (improved forces if not selfconsistent)
 use gradient corrections 
 use of overlap-Matrix (Vanderbilt PP)
 Methfessel and Paxton  Order N= 1 SIGMA  =   0.20


--------------------------------------------------------------------------------------------------------


  energy-cutoff  :      400.00
  volume of cell :       51.60
      direct lattice vectors                 reciprocal lattice vectors
     2.441046239  0.000000000  0.000000000     0.409660409  0.236517547  0.000000000
    -1.220523120  2.114008055  0.000000000     0.000000000  0.473035094  0.000000000
     0.000000000  0.000000000 10.000000000     0.000000000  0.000000000  0.100000000

  length of vectors
     2.441046239  2.441046239 10.000000000     0.473035094  0.473035094  0.100000000


 
 k-points in units of 2pi/SCALE and weight: K-Points                                
   0.00000000  0.00000000  0.00000000       0.012
   0.04551782  0.02627973  0.00000000       0.025
   0.09103565  0.05255945  0.00000000       0.025
   0.13655347  0.07883918  0.00000000       0.025
   0.18207129  0.10511891  0.00000000       0.025
   0.00000000  0.05255945  0.00000000       0.025
   0.04551782  0.07883918  0.00000000       0.025
   0.09103565  0.10511891  0.00000000       0.025
   0.13655347  0.13139864  0.00000000       0.025
   0.18207129  0.15767836  0.00000000       0.025
  -0.18207129 -0.05255945  0.00000000       0.025
  -0.13655347 -0.02627973  0.00000000       0.025
  -0.09103565 -0.00000000  0.00000000       0.025
  -0.04551782  0.02627973  0.00000000       0.025
   0.00000000  0.10511891  0.00000000       0.025
   0.04551782  0.13139864  0.00000000       0.025
   0.09103565  0.15767836  0.00000000       0.025
   0.13655347  0.18395809  0.00000000       0.025
   0.18207129  0.21023782  0.00000000       0.025
  -0.18207129 -0.00000000  0.00000000       0.025
  -0.13655347  0.02627973  0.00000000       0.025
  -0.09103565  0.05255945  0.00000000       0.025
  -0.04551782  0.07883918  0.00000000       0.025
   0.00000000  0.15767836  0.00000000       0.025
   0.04551782  0.18395809  0.00000000       0.025
   0.09103565  0.21023782  0.00000000       0.025
   0.13655347  0.23651755  0.00000000       0.025
   0.18207129  0.26279727  0.00000000       0.025
  -0.18207129  0.05255945  0.00000000       0.025
  -0.13655347  0.07883918  0.00000000       0.025
  -0.09103565  0.10511891  0.00000000       0.025
  -0.04551782  0.13139864  0.00000000       0.025
   0.00000000  0.21023782  0.00000000       0.025
   0.04551782  0.23651755  0.00000000       0.025
   0.09103565  0.26279727  0.00000000       0.025
   0.13655347  0.28907700  0.00000000       0.025
   0.18207129  0.31535673  0.00000000       0.025
  -0.18207129  0.10511891  0.00000000       0.025
  -0.13655347  0.13139864  0.00000000       0.025
  -0.09103565  0.15767836  0.00000000       0.025
  -0.04551782  0.18395809  0.00000000       0.025
 
 k-points in reciprocal lattice and weights: K-Points                                
   0.00000000  0.00000000  0.00000000       0.012
   0.11111111 -0.00000000  0.00000000       0.025
   0.22222222 -0.00000000  0.00000000       0.025
   0.33333333  0.00000000  0.00000000       0.025
   0.44444444 -0.00000000  0.00000000       0.025
   0.00000000  0.11111111  0.00000000       0.025
   0.11111111  0.11111111  0.00000000       0.025
   0.22222222  0.11111111  0.00000000       0.025
   0.33333333  0.11111111  0.00000000       0.025
   0.44444444  0.11111111  0.00000000       0.025
  -0.44444444  0.11111111  0.00000000       0.025
  -0.33333333  0.11111111  0.00000000       0.025
  -0.22222222  0.11111111  0.00000000       0.025
  -0.11111111  0.11111111  0.00000000       0.025
   0.00000000  0.22222222  0.00000000       0.025
   0.11111111  0.22222222  0.00000000       0.025
   0.22222222  0.22222222  0.00000000       0.025
   0.33333333  0.22222222  0.00000000       0.025
   0.44444444  0.22222222  0.00000000       0.025
  -0.44444444  0.22222222  0.00000000       0.025
  -0.33333333  0.22222222  0.00000000       0.025
  -0.22222222  0.22222222  0.00000000       0.025
  -0.11111111  0.22222222  0.00000000       0.025
   0.00000000  0.33333333  0.00000000       0.025
   0.11111111  0.33333333  0.00000000       0.025
   0.22222222  0.33333333  0.00000000       0.025
   0.33333333  0.33333333  0.00000000       0.025
   0.44444444  0.33333333  0.00000000       0.025
  -0.44444444  0.33333333  0.00000000       0.025
  -0.33333333  0.33333333  0.00000000       0.025
  -0.22222222  0.33333333  0.00000000       0.025
  -0.11111111  0.33333333  0.00000000       0.025
   0.00000000  0.44444444  0.00000000       0.025
   0.11111111  0.44444444  0.00000000       0.025
   0.22222222  0.44444444  0.00000000       0.025
   0.33333333  0.44444444  0.00000000       0.025
   0.44444444  0.44444444  0.00000000       0.025
  -0.44444444  0.44444444  0.00000000       0.025
  -0.33333333  0.44444444  0.00000000       0.025
  -0.22222222  0.44444444  0.00000000       0.025
  -0.11111111  0.44444444  0.00000000       0.025
 
 position of ions in fractional coordinates (direct lattice) 
   0.10000000  0.10000000  0.50000000
   0.42200000  0.76600000  0.52000000
 
 position of ions in cartesian coordinates  (Angst):
   0.12205231  0.21140081  5.00000000
   0.09520080  1.61933017  5.20000000
 


--------------------------------------------------------------------------------------------------------


 k-point  1 :   0.0000 0.0000 0.0000  plane waves:     909
 k-point  2 :   0.1111-0.0000 0.0000  plane waves:     907
 k-point  3 :   0.2222-0.0000 0.0000  plane waves:     919
 k-point  4 :   0.3333 0.0000 0.0000  plane waves:     943
 k-point  5 :   0.4444-0.0000 0.0000  plane waves:     937
 k-point  6 :   0.0000 0.1111 0.0000  plane waves:     907
 k-point  7 :   0.1111 0.1111 0.0000  plane waves:     926
 k-point  8 :   0.2222 0.1111 0.0000  plane waves:     940
 k-point  9 :   0.3333 0.1111 0.0000  plane waves:     949
 k-point 10 :   0.4444 0.1111 0.0000  plane waves:     954
 k-point 11 :  -0.4444 0.1111 0.0000  plane waves:     949
 k-point 12 :  -0.3333 0.1111 0.0000  plane waves:     940
 k-point 13 :  -0.2222 0.1111 0.0000  plane waves:     926
 k-point 14 :  -0.1111 0.1111 0.0000  plane waves:     907
 k-point 15 :   0.0000 0.2222 0.0000  plane waves:     919
 k-point 16 :   0.1111 0.2222 0.0000  plane waves:     940
 k-point 17 :   0.2222 0.2222 0.0000  plane waves:     948
 k-point 18 :   0.3333 0.2222 0.0000  plane waves:     943
 k-point 19 :   0.4444 0.2222 0.0000  plane waves:     943
 k-point 20 :  -0.4444 0.2222 0.0000  plane waves:     948
 k-point 21 :  -0.3333 0.2222 0.0000  plane waves:     940
 k-point 22 :  -0.2222 0.2222 0.0000  plane waves:     919
 k-point 23 :  -0.1111 0.2222 0.0000  plane waves:     926
 k-point 24 :   0.0000 0.3333 0.0000  plane waves:     943
 k-point 25 :   0.1111 0.3333 0.0000  plane waves:     949
 k-point 26 :   0.2222 0.3333 0.0000  plane waves:     943
 k-point 27 :   0.3333 0.3333 0.0000  plane waves:     936
 k-point 28 :   0.4444 0.3333 0.0000  plane waves:     943
 k-point 29 :  -0.4444 0.3333 0.0000  plane waves:     949
 k-point 30 :  -0.3333 0.3333 0.0000  plane waves:     943
 k-point 31 :  -0.2222 0.3333 0.0000  plane waves:     940
 k-point 32 :  -0.1111 0.3333 0.0000  plane waves:     940
 k-point 33 :   0.0000 0.4444 0.0000  plane waves:     937
 k-point 34 :   0.1111 0.4444 0.0000  plane waves:     954
 k-point 35 :   0.2222 0.4444 0.0000  plane waves:     943
 k-point 36 :   0.3333 0.4444 0.0000  plane waves:     943
 k-point 37 :   0.4444 0.4444 0.0000  plane waves:     954
 k-point 38 :  -0.4444 0.4444 0.0000  plane waves:     937
 k-point 39 :  -0.3333 0.4444 0.0000  plane waves:     949
 k-point 40 :  -0.2222 0.4444 0.0000  plane waves:     948
 k-point 41 :  -0.1111 0.4444 0.0000  plane waves:     949

 maximum and minimum number of plane-waves per node :       954      907

 maximum number of plane-waves:       954
 maximum index in each direction: 
   IXMAX=    4   IYMAX=    3   IZMAX=   16
   IXMIN=   -4   IYMIN=   -4   IZMIN=  -16


 serial   3D FFT for wavefunctions
 parallel 3D FFT for charge:
    minimum data exchange during FFTs selected (reduces bandwidth)


 total amount of memory used by VASP MPI-rank0    35473. kBytes
=======================================================================

   base      :      30000. kBytes
   nonlr-proj:        220. kBytes
   fftplans  :       1011. kBytes
   grid      :       1691. kBytes
   one-center:          6. kBytes
   wavefun   :       2545. kBytes
 
     INWAV:  cpu time    0.0000: real time    0.0003
 Broyden mixing: mesh for mixing (old mesh)
   NGX =  7   NGY =  7   NGZ = 33
  (NGX  = 24   NGY  = 24   NGZ  =100)
  gives a total of   1617 points

 initial charge density was supplied:
 charge density of overlapping atoms calculated
 number of electron       8.0000000 magnetization 
 keeping initial charge density in first step


--------------------------------------------------------------------------------------------------------


 Maximum index for non-local projection operator         1255
 Maximum index for augmentation-charges         2131 (set IRDMAX)


--------------------------------------------------------------------------------------------------------


 First call to EWALD:  gamma=   0.476
 Maximum number of real-space cells 4x 4x 1
 Maximum number of reciprocal cells 2x 2x 7

    FEWALD:  cpu time    0.0009: real time    0.0009


--------------------------------------- Iteration      1(   1)  ---------------------------------------


    POTLOK:  cpu time    0.0108: real time    0.0138
    SETDIJ:  cpu time    0.0004: real time    0.0004
     EDDAV:  cpu time    0.1031: real time    0.1034
       DOS:  cpu time    0.0006: real time    0.0006
    --------------------------------------------
      LOOP:  cpu time    0.1149: real time    0.1181

 eigenvalue-minimisations  :   704
 total energy-change (2. order) : 0.3303123E+02  (-0.3629319E+03)
 number of electron       8.0000000 magnetization 
 augmentation part        8.0000000 magnetization 

 Free energy of the ion-electron system (eV)
  ---------------------------------------------------
  alpha Z        PSCENC =         8.05150398
  Ewald energy   TEWEN  =       385.77181787
  -Hartree energ DENC   =      -617.02733561
  -exchange      EXHF   =         0.00000000
  -V(xc)+E(xc)   XCENC  =        27.53564933
  PAW double counting   =         0.00000000        0.00000000
  entropy T*S    EENTRO =        -0.00494624
  eigenvalues    EBANDS =       -63.39570236
  atomic energy  EATOM  =       292.10024138
  Solvation  Ediel_sol  =         0.00000000
  ---------------------------------------------------
  free energy    TOTEN  =        33.03122836 eV

  energy without entropy =       33.03617460  energy(sigma->0) =       33.03287710


--------------------------------------------------------------------------------------------------------




--------------------------------------- Iteration      1(   2)  ---------------------------------------


     EDDAV:  cpu time    0.1213: real time    0.1219
       DOS:  cpu time    0.0005: real time    0.0005
    --------------------------------------------
      LOOP:  cpu time    0.1218: real time    0.1224

 eigenvalue-minimisations  :   856
 total energy-change (2. order) :-0.5139621E+02  (-0.4710993E+02)
 number of electron       8.0000000 magnetization 
 augmentation part        8.0000000 magnetization 

 Free energy of the ion-electron system (eV)
  ---------------------------------------------------
  alpha Z        PSCENC =         8.05150398
  Ewald energy   TEWEN  =       385.77181787
  -Hartree energ DENC   =      -617.02733561
  -exchange      EXHF   =         0.00000000
  -V(xc)+E(xc)   XCENC  =        27.53564933
  PAW double counting   =         0.00000000        0.00000000
  entropy T*S    EENTRO =         0.00028718
  eigenvalues    EBANDS =      -114.79714465
  atomic energy  EATOM  =       292.10024138
  Solvation  Ediel_sol  =         0.00000000
  ---------------------------------------------------
  free energy    TOTEN  =       -18.36498052 eV

  energy without entropy =      -18.36526770  energy(sigma->0) =      -18.36507625


--------------------------------------------------------------------------------------------------------




--------------------------------------- Iteration      1(   3)  ---------------------------------------


     EDDAV:  cpu time    0.1361: real time    0.1368
       DOS:  cpu time    0.0005: real time    0.0005
    --------------------------------------------
      LOOP:  cpu time    0.1367: real time    0.1373

 eigenvalue-minimisations  :   968
 total energy-change (2. order) :-0.1057822E+01  (-0.1058092E+01)
 number of electron       8.0000000 magnetization 
 augmentation part        8.0000000 magnetization 

 Free energy of the ion-electron system (eV)
  ---------------------------------------------------
  alpha Z        PSCENC =         8.05150398
  Ewald energy   TEWEN  =       385.77181787
  -Hartree energ DENC   =      -617.02733561
  -exchange      EXHF   =         0.00000000
  -V(xc)+E(xc)   XCENC  =        27.53564933
  PAW double counting   =         0.00000000        0.00000000
  entropy T*S    EENTRO =         0.00085999
  eigenvalues    EBANDS =      -115.85553955
  atomic energy  EATOM  =       292.10024138
  Solvation  Ediel_sol  =         0.00000000
  ---------------------------------------------------
  free energy    TOTEN  =       -19.42280260 eV

  energy without entropy =      -19.42366259  energy(sigma->0) =      -19.42308926


--------------------------------------------------------------------------------------------------------




--------------------------------------- Iteration      1(   4)  ---------------------------------------


     EDDAV:  cpu time    0.1397: real time    0.1403
       DOS:  cpu time    0.0005: real time    0.0005
    --------------------------------------------
      LOOP:  cpu time    0.1403: real time    0.1409

 eigenvalue-minimisations  :   984
 total energy-change (2. order) :-0.2557251E-02  (-0.2557251E-02)
 number of electron       8.0000000 magnetization 
 augmentation part        8.0000000 magnetization 

 Free energy of the ion-electron system (eV)
  ---------------------------------------------------
  alpha Z        PSCENC =         8.05150398
  Ewald energy   TEWEN  =       385.77181787
  -Hartree energ DENC   =      -617.02733561
  -exchange      EXHF   =         0.00000000
  -V(xc)+E(xc)   XCENC  =        27.53564933
  PAW double counting   =         0.00000000        0.00000000
  entropy T*S    EENTRO =         0.00086017
  eigenvalues    EBANDS =      -115.85809697
  atomic energy  EATOM  =       292.10024138
  Solvation  Ediel_sol  =         0.00000000
  ---------------------------------------------------
  free energy    TOTEN  =       -19.42535985 eV

  energy without entropy =      -19.42622002  energy(sigma->0) =      -19.42564657


--------------------------------------------------------------------------------------------------------




--------------------------------------- Iteration      1(   5)  ---------------------------------------


     EDDAV:  cpu time    0.1410: real time    0.1417
       DOS:  cpu time    0.0005: real time    0.0005
    CHARGE:  cpu time    0.0098: real time    0.0099
    MIXING:  cpu time    0.0004: real time    0.0004
    --------------------------------------------
      LOOP:  cpu time    0.1517: real time    0.1524

 eigenvalue-minimisations  :   992
 total energy-change (2. order) :-0.2300191E-05  (-0.2300952E-05)
 number of electron       8.0000007 magnetization 
 augmentation part        0.2860437 magnetization 

 Broyden mixing:
  rms(total) = 0.55645E+00    rms(broyden)= 0.55305E+00
  rms(prec ) = 0.73699E+00
  weight for this iteration     100.00

 Free energy of the ion-electron system (eV)
  ---------------------------------------------------
  alpha Z        PSCENC =         8.05150398
  Ewald energy   TEWEN  =       385.77181787
  -Hartree energ DENC   =      -617.02733561
  -exchange      EXHF   =         0.00000000
  -V(xc)+E(xc)   XCENC  =        27.53564933
  PAW double counting   =         0.00000000        0.00000000
  entropy T*S    EENTRO =         0.00086017
  eigenvalues    EBANDS =      -115.85809927
  atomic energy  EATOM  =       292.10024138
  Solvation  Ediel_sol  =         0.00000000
  ---------------------------------------------------
  free energy    TOTEN  =       -19.42536215 eV

  energy without entropy =      -19.42622232  energy(sigma->0) =      -19.42564887


--------------------------------------------------------------------------------------------------------




--------------------------------------- Iteration      1(   6)  ---------------------------------------


    POTLOK:  cpu time    0.0086: real time    0.0089
    SETDIJ:  cpu time    0.0004: real time    0.0004
     EDDAV:  cpu time    0.1445: real time    0.1449
       DOS:  cpu time    0.0006: real time    0.0006
    CHARGE:  cpu time    0.0109: real time    0.0109
    MIXING:  cpu time    0.0005: real time    0.0005
    --------------------------------------------
      LOOP:  cpu time    0.1654: real time    0.1661

 eigenvalue-minimisations  :  1056
 total energy-change (2. order) : 0.1249997E+01  (-0.3392047E+00)
 number of electron       8.0000007 magnetization 
 augmentation part        0.2409565 magnetization 

 Broyden mixing:
  rms(total) = 0.81612E-01    rms(broyden)= 0.81030E-01
  rms(prec ) = 0.11479E+00
  weight for this iteration     100.00

 eigenvalues of (default mixing * dielectric matrix)
  average eigenvalue GAMMA=   1.0348
  1.0348

 Free energy of the ion-electron system (eV)
  ---------------------------------------------------
  alpha Z        PSCENC =         8.05150398
  Ewald energy   TEWEN  =       385.77181787
  -Hartree energ DENC   =      -639.16027015
  -exchange      EXHF   =         0.00000000
  -V(xc)+E(xc)   XCENC  =        28.61669305
  PAW double counting   =         0.00000000        0.00000000
  entropy T*S    EENTRO =         0.00046473
  eigenvalues    EBANDS =       -93.55581591
  atomic energy  EATOM  =       292.10024138
  Solvation  Ediel_sol  =         0.00000000
  ---------------------------------------------------
  free energy    TOTEN  =       -18.17536505 eV

  energy without entropy =      -18.17582978  energy(sigma->0) =      -18.17551996


--------------------------------------------------------------------------------------------------------




--------------------------------------- Iteration      1(   7)  ---------------------------------------


    POTLOK:  cpu time    0.0089: real time    0.0094
    SETDIJ:  cpu time    0.0004: real time    0.0004
     EDDAV:  cpu time    0.1332: real time    0.1336
       DOS:  cpu time    0.0006: real time    0.0006
    CHARGE:  cpu time    0.0102: real time    0.0102
    MIXING:  cpu time    0.0004: real time    0.0004
    --------------------------------------------
      LOOP:  cpu time    0.1537: real time    0.1545

 eigenvalue-minimisations  :   960
 total energy-change (2. order) : 0.1487132E-01  (-0.2625683E-02)
 number of electron       8.0000007 magnetization 
 augmentation part        0.2391677 magnetization 

 Broyden mixing:
  rms(total) = 0.21535E-01    rms(broyden)= 0.21341E-01
  rms(prec ) = 0.50477E-01
  weight for this iteration     100.00

 eigenvalues of (default mixing * dielectric matrix)
  average eigenvalue GAMMA=   1.1680
  1.0542  1.2819

 Free energy of the ion-electron system (eV)
  ---------------------------------------------------
  alpha Z        PSCENC =         8.05150398
  Ewald energy   TEWEN  =       385.77181787
  -Hartree energ DENC   =      -642.91014364
  -exchange      EXHF   =         0.00000000
  -V(xc)+E(xc)   XCENC  =        28.71254752
  PAW double counting   =         0.00000000        0.00000000
  entropy T*S    EENTRO =         0.00048687
  eigenvalues    EBANDS =       -89.88694771
  atomic energy  EATOM  =       292.10024138
  Solvation  Ediel_sol  =         0.00000000
  ---------------------------------------------------
  free energy    TOTEN  =       -18.16049373 eV

  energy without entropy =      -18.16098060  energy(sigma->0) =      -18.16065602


--------------------------------------------------------------------------------------------------------




--------------------------------------- Iteration      1(   8)  ---------------------------------------


    POTLOK:  cpu time    0.0090: real time    0.0094
    SETDIJ:  cpu time    0.0004: real time    0.0004
     EDDAV:  cpu time    0.1327: real time    0.1330
       DOS:  cpu time    0.0005: real time    0.0005
    CHARGE:  cpu time    0.0102: real time    0.0102
    MIXING:  cpu time    0.0004: real time    0.0004
    --------------------------------------------
      LOOP:  cpu time    0.1531: real time    0.1539

 eigenvalue-minimisations  :   960
 total energy-change (2. order) : 0.9210885E-02  (-0.6759666E-03)
 number of electron       8.0000007 magnetization 
 augmentation part        0.2384802 magnetization 

 Broyden mixing:
  rms(total) = 0.68877E-02    rms(broyden)= 0.68026E-02
  rms(prec ) = 0.27402E-01
  weight for this iteration     100.00

 eigenvalues of (default mixing * dielectric matrix)
  average eigenvalue GAMMA=   1.2917
  1.0145  1.2319  1.6286

 Free energy of the ion-electron system (eV)
  ---------------------------------------------------
  alpha Z        PSCENC =         8.05150398
  Ewald energy   TEWEN  =       385.77181787
  -Hartree energ DENC   =      -645.54109249
  -exchange      EXHF   =         0.00000000
  -V(xc)+E(xc)   XCENC  =        28.76079904
  PAW double counting   =         0.00000000        0.00000000
  entropy T*S    EENTRO =         0.00048037
  eigenvalues    EBANDS =       -87.29503299
  atomic energy  EATOM  =       292.10024138
  Solvation  Ediel_sol  =         0.00000000
  ---------------------------------------------------
  free energy    TOTEN  =       -18.15128284 eV

  energy without entropy =      -18.15176321  energy(sigma->0) =      -18.15144297


--------------------------------------------------------------------------------------------------------




--------------------------------------- Iteration      1(   9)  ---------------------------------------


    POTLOK:  cpu time    0.0092: real time    0.0114
    SETDIJ:  cpu time    0.0004: real time    0.0004
     EDDAV:  cpu time    0.1083: real time    0.1085
       DOS:  cpu time    0.0006: real time    0.0006
    CHARGE:  cpu time    0.0107: real time    0.0107
    MIXING:  cpu time    0.0004: real time    0.0004
    --------------------------------------------
      LOOP:  cpu time    0.1295: real time    0.1320

 eigenvalue-minimisations  :   760
 total energy-change (2. order) : 0.3589998E-02  (-0.3766336E-03)
 number of electron       8.0000007 magnetization 
 augmentation part        0.2379178 magnetization 

 Broyden mixing:
  rms(total) = 0.29718E-02    rms(broyden)= 0.29176E-02
  rms(prec ) = 0.95204E-02
  weight for this iteration     100.00

 eigenvalues of (default mixing * dielectric matrix)
  average eigenvalue GAMMA=   1.5647
  2.6614  1.0201  1.1759  1.4014

 Free energy of the ion-electron system (eV)
  ---------------------------------------------------
  alpha Z        PSCENC =         8.05150398
  Ewald energy   TEWEN  =       385.77181787
  -Hartree energ DENC   =      -648.04236684
  -exchange      EXHF   =         0.00000000
  -V(xc)+E(xc)   XCENC  =        28.78905497
  PAW double counting   =         0.00000000        0.00000000
  entropy T*S    EENTRO =         0.00047603
  eigenvalues    EBANDS =       -84.81842023
  atomic energy  EATOM  =       292.10024138
  Solvation  Ediel_sol  =         0.00000000
  ---------------------------------------------------
  free energy    TOTEN  =       -18.14769284 eV

  energy without entropy =      -18.14816888  energy(sigma->0) =      -18.14785152


--------------------------------------------------------------------------------------------------------




--------------------------------------- Iteration      1(  10)  ---------------------------------------


    POTLOK:  cpu time    0.0085: real time    0.0088
    SETDIJ:  cpu time    0.0004: real time    0.0004
     EDDAV:  cpu time    0.1159: real time    0.1162
       DOS:  cpu time    0.0006: real time    0.0006
    CHARGE:  cpu time    0.0102: real time    0.0102
    MIXING:  cpu time    0.0004: real time    0.0004
    --------------------------------------------
      LOOP:  cpu time    0.1360: real time    0.1366

 eigenvalue-minimisations  :   832
 total energy-change (2. order) :-0.1243127E-02  (-0.7078029E-04)
 number of electron       8.0000007 magnetization 
 augmentation part        0.2377339 magnetization 

 Broyden mixing:
  rms(total) = 0.82090E-03    rms(broyden)= 0.79838E-03
  rms(prec ) = 0.17724E-02
  weight for this iteration     100.00

 eigenvalues of (default mixing * dielectric matrix)
  average eigenvalue GAMMA=   1.7956
  3.9248  1.0129  1.1109  1.6156  1.3139

 Free energy of the ion-electron system (eV)
  ---------------------------------------------------
  alpha Z        PSCENC =         8.05150398
  Ewald energy   TEWEN  =       385.77181787
  -Hartree energ DENC   =      -648.92230934
  -exchange      EXHF   =         0.00000000
  -V(xc)+E(xc)   XCENC  =        28.79285072
  PAW double counting   =         0.00000000        0.00000000
  entropy T*S    EENTRO =         0.00047431
  eigenvalues    EBANDS =       -83.94351490
  atomic energy  EATOM  =       292.10024138
  Solvation  Ediel_sol  =         0.00000000
  ---------------------------------------------------
  free energy    TOTEN  =       -18.14893597 eV

  energy without entropy =      -18.14941028  energy(sigma->0) =      -18.14909407


--------------------------------------------------------------------------------------------------------




--------------------------------------- Iteration      1(  11)  ---------------------------------------


    POTLOK:  cpu time    0.0088: real time    0.0092
    SETDIJ:  cpu time    0.0004: real time    0.0004
     EDDAV:  cpu time    0.0959: real time    0.0962
       DOS:  cpu time    0.0005: real time    0.0005
    CHARGE:  cpu time    0.0102: real time    0.0102
    MIXING:  cpu time    0.0004: real time    0.0004
    --------------------------------------------
      LOOP:  cpu time    0.1163: real time    0.1169

 eigenvalue-minimisations  :   656
 total energy-change (2. order) :-0.9469928E-03  (-0.4047412E-04)
 number of electron       8.0000007 magnetization 
 augmentation part        0.2377219 magnetization 

 Broyden mixing:
  rms(total) = 0.15810E-03    rms(broyden)= 0.15333E-03
  rms(prec ) = 0.32480E-03
  weight for this iteration     100.00

 eigenvalues of (default mixing * dielectric matrix)
  average eigenvalue GAMMA=   1.7671
  4.1082  1.8740  1.0236  1.0439  1.2228  1.3299

 Free energy of the ion-electron system (eV)
  ---------------------------------------------------
  alpha Z        PSCENC =         8.05150398
  Ewald energy   TEWEN  =       385.77181787
  -Hartree energ DENC   =      -649.00986813
  -exchange      EXHF   =         0.00000000
  -V(xc)+E(xc)   XCENC  =        28.79277115
  PAW double counting   =         0.00000000        0.00000000
  entropy T*S    EENTRO =         0.00047435
  eigenvalues    EBANDS =       -83.85682357
  atomic energy  EATOM  =       292.10024138
  Solvation  Ediel_sol  =         0.00000000
  ---------------------------------------------------
  free energy    TOTEN  =       -18.14988296 eV

  energy without entropy =      -18.15035732  energy(sigma->0) =      -18.15004108


--------------------------------------------------------------------------------------------------------




--------------------------------------- Iteration      1(  12)  ---------------------------------------


    POTLOK:  cpu time    0.0090: real time    0.0094
    SETDIJ:  cpu time    0.0004: real time    0.0004
     EDDAV:  cpu time    0.1129: real time    0.1132
       DOS:  cpu time    0.0006: real time    0.0006
    --------------------------------------------
      LOOP:  cpu time    0.1228: real time    0.1236

 eigenvalue-minimisations  :   792
 total energy-change (2. order) :-0.8756128E-04  (-0.4818935E-05)
 number of electron       8.0000007 magnetization 
 augmentation part        0.2377219 magnetization 

 Free energy of the ion-electron system (eV)
  ---------------------------------------------------
  alpha Z        PSCENC =         8.05150398
  Ewald energy   TEWEN  =       385.77181787
  -Hartree energ DENC   =      -648.97617299
  -exchange      EXHF   =         0.00000000
  -V(xc)+E(xc)   XCENC  =        28.79221891
  PAW double counting   =         0.00000000        0.00000000
  entropy T*S    EENTRO =         0.00047445
  eigenvalues    EBANDS =       -83.89005412
  atomic energy  EATOM  =       292.10024138
  Solvation  Ediel_sol  =         0.00000000
  ---------------------------------------------------
  free energy    TOTEN  =       -18.14997052 eV

  energy without entropy =      -18.15044497  energy(sigma->0) =      -18.15012867


--------------------------------------------------------------------------------------------------------




 average (electrostatic) potential at core
  the test charge radii are     0.9437
  (the norm of the test charge is              1.0000)
       1 -46.2272       2 -46.2245
 
 
 
 E-fermi :  -1.4781     XC(G=0):  -4.3329     alpha+bet : -3.7104


 k-point     1 :       0.0000    0.0000    0.0000
  band No.  band energies     occupation 
      1     -21.0284      2.00000
      2      -9.1161      2.00000
      3      -4.5418      2.00000
      4      -3.7489      2.00000
      5       1.3800     -0.00000
      6       3.0975     -0.00000
      7       4.3774      0.00000
      8       6.5225      0.00000

 k-point     2 :       0.1111   -0.0000    0.0000
  band No.  band energies     occupation 
      1     -20.7298      2.00000
      2      -8.7722      2.00000
      3      -5.1830      2.00000
      4      -4.8586      2.00000
      5       1.7610     -0.00000
      6       3.4996     -0.00000
      7       4.7128      0.00000
      8       6.7390      0.00000

 k-point     3 :       0.2222   -0.0000    0.0000
  band No.  band energies     occupation 
      1     -19.8400      2.00000
      2      -7.9764      2.00000
      3      -7.4975      2.00000
      4      -6.1348      2.00000
      5       2.8283     -0.00000
      6       4.6818      0.00000
      7       5.3453      0.00000
      8       6.7851      0.00000

 k-point     4 :       0.3333    0.0000    0.0000
  band No.  band energies     occupation 
      1     -18.3816      2.00000
      2     -10.8066      2.00000
      3      -7.1358      2.00000
      4      -6.1095      2.00000
      5       2.9214     -0.00000
      6       5.4999      0.00000
      7       6.5032      0.00000
      8       6.8099      0.00000

 k-point     5 :       0.4444   -0.0000    0.0000
  band No.  band energies     occupation 
      1     -16.4506      2.00000
      2     -13.6162      2.00000
      3      -7.6900      2.00000
      4      -4.3292      2.00000
      5       0.7543     -0.00000
      6       6.3027      0.00000
      7       8.0292      0.00000
      8       9.3910      0.00000

 k-point     6 :       0.0000    0.1111    0.0000
  band No.  band energies     occupation 
      1     -20.7308      2.00000
      2      -8.7705      2.00000
      3      -5.4728      2.00000
      4      -4.5455      2.00000
      5       1.7611     -0.00000
      6       3.5004     -0.00000
      7       4.7138      0.00000
      8       6.8836      0.00000

 k-point     7 :       0.1111    0.1111    0.0000
  band No.  band energies     occupation 
      1     -20.1358      2.00000
      2      -8.1112      2.00000
      3      -6.6443      2.00000
      4      -6.1408      2.00000
      5       2.4938     -0.00000
      6       4.2986      0.00000
      7       5.2468      0.00000
      8       7.1031      0.00000

 k-point     8 :       0.2222    0.1111    0.0000
  band No.  band energies     occupation 
      1     -18.9606      2.00000
      2      -9.2407      2.00000
      3      -7.5619      2.00000
      4      -6.7095      2.00000
      5       3.4116     -0.00000
      6       5.2163      0.00000
      7       5.8917      0.00000
      8       7.7420      0.00000

 k-point     9 :       0.3333    0.1111    0.0000
  band No.  band energies     occupation 
      1     -17.2489      2.00000
      2     -12.1173      2.00000
      3      -8.3946      2.00000
      4      -4.9375      2.00000
      5       1.7389     -0.00000
      6       6.9091      0.00000
      7       7.6297      0.00000
      8       8.2008      0.00000

 k-point    10 :       0.4444    0.1111    0.0000
  band No.  band energies     occupation 
      1     -15.5459      2.00000
      2     -14.2516      2.00000
      3      -8.6795      2.00000
      4      -3.6691      2.00000
      5       0.2174     -0.00000
      6       7.5292      0.00000
      7       9.6572      0.00000
      8      10.0589      0.00000

 k-point    11 :      -0.4444    0.1111    0.0000
  band No.  band energies     occupation 
      1     -17.2523      2.00000
      2     -12.1330      2.00000
      3      -8.3748      2.00000
      4      -4.9213      2.00000
      5       1.7015     -0.00000
      6       6.9076      0.00000
      7       7.6736      0.00000
      8       8.2065      0.00000

 k-point    12 :      -0.3333    0.1111    0.0000
  band No.  band energies     occupation 
      1     -18.9641      2.00000
      2      -9.3218      2.00000
      3      -7.4720      2.00000
      4      -6.6994      2.00000
      5       3.3925     -0.00000
      6       5.1981      0.00000
      7       5.9008      0.00000
      8       7.7750      0.00000

 k-point    13 :      -0.2222    0.1111    0.0000
  band No.  band energies     occupation 
      1     -20.1382      2.00000
      2      -8.1145      2.00000
      3      -6.8934      2.00000
      4      -5.8699      2.00000
      5       2.4932     -0.00000
      6       4.3005      0.00000
      7       5.2497      0.00000
      8       7.3168      0.00000

 k-point    14 :      -0.1111    0.1111    0.0000
  band No.  band energies     occupation 
      1     -20.7316      2.00000
      2      -8.7692      2.00000
      3      -5.5894      2.00000
      4      -4.4189      2.00000
      5       1.7610     -0.00000
      6       3.5011     -0.00000
      7       4.7146      0.00000
      8       7.2330      0.00000

 k-point    15 :       0.0000    0.2222    0.0000
  band No.  band energies     occupation 
      1     -19.8439      2.00000
      2      -8.1205      2.00000
      3      -7.5684      2.00000
      4      -5.8566      2.00000
      5       2.8227     -0.00000
      6       4.6903      0.00000
      7       5.3234      0.00000
      8       6.8580      0.00000

 k-point    16 :       0.1111    0.2222    0.0000
  band No.  band energies     occupation 
      1     -18.9632      2.00000
      2      -9.3848      2.00000
      3      -7.3901      2.00000
      4      -6.6948      2.00000
      5       3.3857     -0.00000
      6       5.2030      0.00000
      7       5.8833      0.00000
      8       7.7677      0.00000

 k-point    17 :       0.2222    0.2222    0.0000
  band No.  band energies     occupation 
      1     -17.5293      2.00000
      2     -10.8011      2.00000
      3      -9.5839      2.00000
      4      -5.1538      2.00000
      5       2.2439     -0.00000
      6       6.5788      0.00000
      7       7.7038      0.00000
      8       9.5895      0.00000

 k-point    18 :       0.3333    0.2222    0.0000
  band No.  band energies     occupation 
      1     -15.6600      2.00000
      2     -12.9720      2.00000
      3     -10.5782      2.00000
      4      -3.3565      2.00000
      5       0.3215     -0.00000
      6       9.0789      0.00000
      7       9.3644      0.00000
      8      10.4310      0.00000

 k-point    19 :       0.4444    0.2222    0.0000
  band No.  band energies     occupation 
      1     -15.6602      2.00000
      2     -13.0096      2.00000
      3     -10.5377      2.00000
      4      -3.3188      2.00000
      5       0.2577     -0.00000
      6       9.0936      0.00000
      7       9.3822      0.00000
      8      10.4870      0.00000

 k-point    20 :      -0.4444    0.2222    0.0000
  band No.  band energies     occupation 
      1     -17.5354      2.00000
      2     -10.9630      2.00000
      3      -9.4064      2.00000
      4      -5.1180      2.00000
      5       2.1494     -0.00000
      6       6.5724      0.00000
      7       7.7260      0.00000
      8       9.5874      0.00000

 k-point    21 :      -0.3333    0.2222    0.0000
  band No.  band energies     occupation 
      1     -18.9690      2.00000
      2      -9.5412      2.00000
      3      -7.2084      2.00000
      4      -6.6729      2.00000
      5       3.3442     -0.00000
      6       5.1738      0.00000
      7       5.8860      0.00000
      8       7.7729      0.00000

 k-point    22 :      -0.2222    0.2222    0.0000
  band No.  band energies     occupation 
      1     -19.8471      2.00000
      2      -8.2287      2.00000
      3      -7.5852      2.00000
      4      -5.6947      2.00000
      5       2.8178     -0.00000
      6       4.6970      0.00000
      7       5.3073      0.00000
      8       6.9836      0.00000

 k-point    23 :      -0.1111    0.2222    0.0000
  band No.  band energies     occupation 
      1     -20.1411      2.00000
      2      -8.1211      2.00000
      3      -7.1005      2.00000
      4      -5.6179      2.00000
      5       2.4921     -0.00000
      6       4.3033      0.00000
      7       5.2477      0.00000
      8       7.4621      0.00000

 k-point    24 :       0.0000    0.3333    0.0000
  band No.  band energies     occupation 
      1     -18.3884      2.00000
      2     -10.9519      2.00000
      3      -6.9252      2.00000
      4      -6.0682      2.00000
      5       2.8126     -0.00000
      6       5.4893      0.00000
      7       6.5447      0.00000
      8       6.8139      0.00000

 k-point    25 :       0.1111    0.3333    0.0000
  band No.  band energies     occupation 
      1     -17.2506      2.00000
      2     -12.2398      2.00000
      3      -8.2282      2.00000
      4      -4.8823      2.00000
      5       1.6109     -0.00000
      6       6.9074      0.00000
      7       7.6723      0.00000
      8       8.2042      0.00000

 k-point    26 :       0.2222    0.3333    0.0000
  band No.  band energies     occupation 
      1     -15.6442      2.00000
      2     -13.0976      2.00000
      3     -10.4520      2.00000
      4      -3.2861      2.00000
      5       0.2041     -0.00000
      6       9.0951      0.00000
      7       9.3699      0.00000
      8      10.4813      0.00000

 k-point    27 :       0.3333    0.3333    0.0000
  band No.  band energies     occupation 
      1     -14.0715      2.00000
      2     -13.8127      2.00000
      3     -11.8875      2.00000
      4      -1.6413      1.98800
      5      -1.3149      0.01200
      6       8.8113      0.00000
      7      11.6883      0.00000
      8      11.8653      0.00000

 k-point    28 :       0.4444    0.3333    0.0000
  band No.  band energies     occupation 
      1     -15.6321      2.00000
      2     -13.2190      2.00000
      3     -10.3300      2.00000
      4      -3.1849      2.00000
      5       0.0405     -0.00000
      6       9.1302      0.00000
      7       9.3972      0.00000
      8      10.6293      0.00000

 k-point    29 :      -0.4444    0.3333    0.0000
  band No.  band energies     occupation 
      1     -17.2560      2.00000
      2     -12.3411      2.00000
      3      -8.0952      2.00000
      4      -4.8203      2.00000
      5       1.4706     -0.00000
      6       6.9047      0.00000
      7       7.8157      0.00000
      8       8.2126      0.00000

 k-point    30 :      -0.3333    0.3333    0.0000
  band No.  band energies     occupation 
      1     -18.3942      2.00000
      2     -11.0537      2.00000
      3      -6.7844      2.00000
      4      -6.0349      2.00000
      5       2.7245     -0.00000
      6       5.4813      0.00000
      7       6.6139      0.00000
      8       6.8626      0.00000

 k-point    31 :      -0.2222    0.3333    0.0000
  band No.  band energies     occupation 
      1     -18.9733      2.00000
      2      -9.6208      2.00000
      3      -7.1086      2.00000
      4      -6.6597      2.00000
      5       3.3164     -0.00000
      6       5.1512      0.00000
      7       5.8944      0.00000
      8       7.7676      0.00000

 k-point    32 :      -0.1111    0.3333    0.0000
  band No.  band energies     occupation 
      1     -18.9711      2.00000
      2      -9.5404      2.00000
      3      -7.2056      2.00000
      4      -6.6715      2.00000
      5       3.3389     -0.00000
      6       5.1618      0.00000
      7       5.9004      0.00000
      8       7.7717      0.00000

 k-point    33 :       0.0000    0.4444    0.0000
  band No.  band energies     occupation 
      1     -16.4393      2.00000
      2     -13.7475      2.00000
      3      -7.5060      2.00000
      4      -4.2091      2.00000
      5       0.5331     -0.00000
      6       6.3386      0.00000
      7       8.0291      0.00000
      8       9.3944      0.00000

 k-point    34 :       0.1111    0.4444    0.0000
  band No.  band energies     occupation 
      1     -15.4616      2.00000
      2     -14.4545      2.00000
      3      -8.5130      2.00000
      4      -3.5113      2.00000
      5      -0.0380     -0.00000
      6       7.5727      0.00000
      7       9.6991      0.00000
      8      10.0305      0.00000

 k-point    35 :       0.2222    0.4444    0.0000
  band No.  band energies     occupation 
      1     -15.6435      2.00000
      2     -13.1769      2.00000
      3     -10.3643      2.00000
      4      -3.1936      2.00000
      5       0.0537     -0.00000
      6       9.1207      0.00000
      7       9.4126      0.00000
      8      10.5489      0.00000

 k-point    36 :       0.3333    0.4444    0.0000
  band No.  band energies     occupation 
      1     -15.6313      2.00000
      2     -13.2616      2.00000
      3     -10.2819      2.00000
      4      -3.1294      2.00000
      5      -0.0467     -0.00000
      6       9.1404      0.00000
      7       9.4231      0.00000
      8      10.6377      0.00000

 k-point    37 :       0.4444    0.4444    0.0000
  band No.  band energies     occupation 
      1     -15.3740      2.00000
      2     -14.6297      2.00000
      3      -8.3966      2.00000
      4      -3.3698      2.00000
      5      -0.2559     -0.00000
      6       7.6788      0.00000
      7       9.7260      0.00000
      8      10.0040      0.00000

 k-point    38 :      -0.4444    0.4444    0.0000
  band No.  band energies     occupation 
      1     -16.4316      2.00000
      2     -13.8445      2.00000
      3      -7.3785      2.00000
      4      -4.1066      2.00000
      5       0.3511     -0.00000
      6       6.4343      0.00000
      7       8.0283      0.00000
      8       9.3967      0.00000

 k-point    39 :      -0.3333    0.4444    0.0000
  band No.  band energies     occupation 
      1     -17.2602      2.00000
      2     -12.3594      2.00000
      3      -8.0677      2.00000
      4      -4.7987      2.00000
      5       1.4228     -0.00000
      6       6.9026      0.00000
      7       7.8465      0.00000
      8       8.2160      0.00000

 k-point    40 :      -0.2222    0.4444    0.0000
  band No.  band energies     occupation 
      1     -17.5427      2.00000
      2     -11.1350      2.00000
      3      -9.2060      2.00000
      4      -5.0721      2.00000
      5       2.0303     -0.00000
      6       6.5649      0.00000
      7       7.7505      0.00000
      8       9.5827      0.00000

 k-point    41 :      -0.1111    0.4444    0.0000
  band No.  band energies     occupation 
      1     -17.2582      2.00000
      2     -12.2736      2.00000
      3      -8.1812      2.00000
      4      -4.8445      2.00000
      5       1.5257     -0.00000
      6       6.9037      0.00000
      7       7.7455      0.00000
      8       8.2150      0.00000


--------------------------------------------------------------------------------------------------------


 soft charge-density along one line, spin component           1
         0         1         2         3         4         5         6         7         8         9
 total charge-density along one line
 
 pseudopotential strength for first ion, spin component:           1
 13.667  -8.435   0.000  -0.007  -0.002  -0.001  -0.063  -0.025
 -8.435   5.930  -0.000   0.001  -0.000   0.000   0.065   0.024
  0.000  -0.000 -10.650   0.000   0.014  41.700   0.000  -0.011
 -0.007   0.001   0.000 -10.464  -0.003   0.000  41.541   0.003
 -0.002  -0.000   0.014  -0.003 -10.650  -0.011   0.003  41.699
 -0.001   0.000  41.700   0.000  -0.011  -8.524  -0.000  -0.123
 -0.063   0.065   0.000  41.541   0.003  -0.000  -9.903   0.028
 -0.025   0.024  -0.011   0.003  41.699  -0.123   0.028  -8.533
 total augmentation occupancy for first ion, spin component:           1
  0.924  -0.108   0.000  -0.030   0.008  -0.000  -0.003  -0.001
 -0.108   0.019  -0.000  -0.013  -0.001   0.000   0.001   0.000
  0.000  -0.000   0.458   0.000  -0.004  -0.021  -0.000   0.001
 -0.030  -0.013   0.000   0.359   0.001  -0.000  -0.010  -0.000
  0.008  -0.001  -0.004   0.001   0.458   0.001  -0.000  -0.021
 -0.000   0.000  -0.021  -0.000   0.001   0.001   0.000  -0.000
 -0.003   0.001  -0.000  -0.010  -0.000   0.000   0.000   0.000
 -0.001   0.000   0.001  -0.000  -0.021  -0.000   0.000   0.001


------------------------ aborting loop because EDIFF is reached ----------------------------------------


    CHARGE:  cpu time    0.0101: real time    0.0102
    FORLOC:  cpu time    0.0004: real time    0.0004
    FORNL :  cpu time    0.0398: real time    0.0399
    FORHAR:  cpu time    0.0020: real time    0.0021
    MIXING:  cpu time    0.0004: real time    0.0004
    OFIELD:  cpu time    0.0000: real time    0.0000

 VOLUME and BASIS-vectors are now :
 -----------------------------------------------------------------------------
  energy-cutoff  :      400.00
  volume of cell :       51.60
      direct lattice vectors                 reciprocal lattice vectors
     2.441046239  0.000000000  0.000000000     0.409660409  0.236517547  0.000000000
    -1.220523120  2.114008055  0.000000000     0.000000000  0.473035094  0.000000000
     0.000000000  0.000000000 10.000000000     0.000000000  0.000000000  0.100000000

  length of vectors
     2.441046239  2.441046239 10.000000000     0.473035094  0.473035094  0.100000000


 FORCES acting on ions
    electron-ion (+dipol)            ewald-force                    non-local-force                 convergence-correction
 -----------------------------------------------------------------------------------------------
   0.346E+01 0.226E-01 0.582E+02   -.460E+01 -.326E-01 -.606E+02   -.363E-01 -.786E-02 0.590E+01   0.262E-05 0.111E-04 0.226E-03
   -.346E+01 -.226E-01 -.582E+02   0.460E+01 0.326E-01 0.606E+02   0.363E-01 0.786E-02 -.590E+01   -.261E-05 -.111E-04 -.226E-03
 -----------------------------------------------------------------------------------------------
   -.164E-05 -.547E-05 -.760E-05   -.178E-14 0.518E-14 0.000E+00   0.000E+00 0.000E+00 0.000E+00   0.895E-08 0.622E-07 -.416E-09
 
 
 POSITION                                       TOTAL-FORCE (eV/Angst)
 -----------------------------------------------------------------------------------
      0.12205      0.21140      5.00000        -1.178080     -0.017766      3.431059
      0.09520      1.61933      5.20000         1.178080      0.017766     -3.431059
 -----------------------------------------------------------------------------------
    total drift:                               -0.000002     -0.000005     -0.000008


--------------------------------------------------------------------------------------------------------



  FREE ENERGIE OF THE ION-ELECTRON SYSTEM (eV)
  ---------------------------------------------------
  free  energy   TOTEN  =       -18.14997052 eV

  energy  without entropy=      -18.15044497  energy(sigma->0) =      -18.15012867
 


--------------------------------------------------------------------------------------------------------


    POTLOK:  cpu time    0.0090: real time    0.0091


--------------------------------------------------------------------------------------------------------


           RANDOM_SEED =         299237020                0                0
           RANDOM_SEED =         299237020                0                0
   IONSTEP:  cpu time    0.0008: real time    0.0031

  ENERGY OF THE ELECTRON-ION-THERMOSTAT SYSTEM (eV)
  ---------------------------------------------------
% ion-electron   TOTEN  =       -18.149971  see above
  kinetic energy EKIN   =         0.000026
  kin. lattice  EKIN_LAT=         0.000000  (temperature    0.20 K)
  nose potential ES     =         0.000000
  nose kinetic   EPS    =         0.000000
  ---------------------------------------------------
  total energy   ETOTAL =       -18.149944 eV

  maximum distance moved by ions :      0.48E-05

    WAVPRE:  cpu time    0.0052: real time    0.0076
    FEWALD:  cpu time    0.0001: real time    0.0001
    ORTHCH:  cpu time    0.0145: real time    0.0145
     LOOP+:  cpu time    1.7263: real time    1.7468


--------------------------------------- Iteration      2(   1)  ---------------------------------------


    POTLOK:  cpu time    0.0090: real time    0.0111
    SETDIJ:  cpu time    0.0004: real time    0.0004
     EDDAV:  cpu time    0.1414: real time    0.1418
       DOS:  cpu time    0.0006: real time    0.0006
    CHARGE:  cpu time    0.0101: real time    0.0102
    MIXING:  cpu time    0.0003: real time    0.0003
    --------------------------------------------
      LOOP:  cpu time    0.1618: real time    0.1643

 eigenvalue-minimisations  :   984
 total energy-change (2. order) :-0.2999023E-03  (-0.3053597E-06)
 number of electron       8.0000007 magnetization 
 augmentation part        0.2377312 magnetization 

 Broyden mixing:
  rms(total) = 0.39533E-04    rms(broyden)= 0.38443E-04
  rms(prec ) = 0.45399E-04
  weight for this iteration     100.00

 Free energy of the ion-electron system (eV)
  ---------------------------------------------------
  alpha Z        PSCENC =         8.05150398
  Ewald energy   TEWEN  =       385.77507213
  -Hartree energ DENC   =      -648.97393045
  -exchange      EXHF   =         0.00000000
  -V(xc)+E(xc)   XCENC  =        28.79216395
  PAW double counting   =         0.00000000        0.00000000
  entropy T*S    EENTRO =         0.00047219
  eigenvalues    EBANDS =       -83.89570605
  atomic energy  EATOM  =       292.10024138
  Solvation  Ediel_sol  =         0.00000000
  ---------------------------------------------------
  free energy    TOTEN  =       -18.15018287 eV

  energy without entropy =      -18.15065505  energy(sigma->0) =      -18.15034026


--------------------------------------------------------------------------------------------------------




--------------------------------------- Iteration      2(   2)  ---------------------------------------


    POTLOK:  cpu time    0.0088: real time    0.0091
    SETDIJ:  cpu time    0.0004: real time    0.0004
     EDDAV:  cpu time    0.0956: real time    0.0958
       DOS:  cpu time    0.0006: real time    0.0006
    --------------------------------------------
      LOOP:  cpu time    0.1053: real time    0.1058

 eigenvalue-minimisations  :   632
 total energy-change (2. order) :-0.7318988E-08  (-0.1651418E-08)
 number of electron       8.0000007 magnetization 
 augmentation part        0.2377312 magnetization 

 Free energy of the ion-electron system (eV)
  ---------------------------------------------------
  alpha Z        PSCENC =         8.05150398
  Ewald energy   TEWEN  =       385.77507213
  -Hartree energ DENC   =      -648.97438895
  -exchange      EXHF   =         0.00000000
  -V(xc)+E(xc)   XCENC  =        28.79218974
  PAW double counting   =         0.00000000        0.00000000
  entropy T*S    EENTRO =         0.00047237
  eigenvalues    EBANDS =       -83.89527352
  atomic energy  EATOM  =       292.10024138
  Solvation  Ediel_sol  =         0.00000000
  ---------------------------------------------------
  free energy    TOTEN  =       -18.15018287 eV

  energy without entropy =      -18.15065524  energy(sigma->0) =      -18.15034033


--------------------------------------------------------------------------------------------------------




 average (electrostatic) potential at core
  the test charge radii are     0.9437
  (the norm of the test charge is              1.0000)
       1 -46.2279       2 -46.2252
 
 
 
 E-fermi :  -1.4785     XC(G=0):  -4.3419     alpha+bet : -3.7104


 k-point     1 :       0.0000    0.0000    0.0000
  band No.  band energies     occupation 
      1     -21.0290      2.00000
      2      -9.1166      2.00000
      3      -4.5423      2.00000
      4      -3.7500      2.00000
      5       1.3707     -0.00000
      6       3.0811     -0.00000
      7       4.3737      0.00000
      8       6.5223      0.00000

 k-point     2 :       0.1111   -0.0000    0.0000
  band No.  band energies     occupation 
      1     -20.7304      2.00000
      2      -8.7727      2.00000
      3      -5.1836      2.00000
      4      -4.8595      2.00000
      5       1.7520     -0.00000
      6       3.4833     -0.00000
      7       4.7088      0.00000
      8       6.7387      0.00000

 k-point     3 :       0.2222   -0.0000    0.0000
  band No.  band energies     occupation 
      1     -19.8406      2.00000
      2      -7.9770      2.00000
      3      -7.4982      2.00000
      4      -6.1355      2.00000
      5       2.8209     -0.00000
      6       4.6661      0.00000
      7       5.3392      0.00000
      8       6.7850      0.00000

 k-point     4 :       0.3333    0.0000    0.0000
  band No.  band energies     occupation 
      1     -18.3823      2.00000
      2     -10.8073      2.00000
      3      -7.1364      2.00000
      4      -6.1100      2.00000
      5       2.9207     -0.00000
      6       5.4891      0.00000
      7       6.4985      0.00000
      8       6.7985      0.00000

 k-point     5 :       0.4444   -0.0000    0.0000
  band No.  band energies     occupation 
      1     -16.4512      2.00000
      2     -13.6170      2.00000
      3      -7.6907      2.00000
      4      -4.3297      2.00000
      5       0.7538     -0.00000
      6       6.3021      0.00000
      7       8.0199      0.00000
      8       9.3774      0.00000

 k-point     6 :       0.0000    0.1111    0.0000
  band No.  band energies     occupation 
      1     -20.7314      2.00000
      2      -8.7710      2.00000
      3      -5.4734      2.00000
      4      -4.5465      2.00000
      5       1.7522     -0.00000
      6       3.4841     -0.00000
      7       4.7097      0.00000
      8       6.8834      0.00000

 k-point     7 :       0.1111    0.1111    0.0000
  band No.  band energies     occupation 
      1     -20.1365      2.00000
      2      -8.1116      2.00000
      3      -6.6451      2.00000
      4      -6.1415      2.00000
      5       2.4857     -0.00000
      6       4.2825      0.00000
      7       5.2411      0.00000
      8       7.1021      0.00000

 k-point     8 :       0.2222    0.1111    0.0000
  band No.  band energies     occupation 
      1     -18.9613      2.00000
      2      -9.2415      2.00000
      3      -7.5625      2.00000
      4      -6.7100      2.00000
      5       3.4089     -0.00000
      6       5.2068      0.00000
      7       5.8764      0.00000
      8       7.7390      0.00000

 k-point     9 :       0.3333    0.1111    0.0000
  band No.  band energies     occupation 
      1     -17.2496      2.00000
      2     -12.1180      2.00000
      3      -8.3952      2.00000
      4      -4.9379      2.00000
      5       1.7385     -0.00000
      6       6.8990      0.00000
      7       7.6289      0.00000
      8       8.1871      0.00000

 k-point    10 :       0.4444    0.1111    0.0000
  band No.  band energies     occupation 
      1     -15.5465      2.00000
      2     -14.2524      2.00000
      3      -8.6802      2.00000
      4      -3.6695      2.00000
      5       0.2169     -0.00000
      6       7.5287      0.00000
      7       9.6504      0.00000
      8      10.0491      0.00000

 k-point    11 :      -0.4444    0.1111    0.0000
  band No.  band energies     occupation 
      1     -17.2530      2.00000
      2     -12.1337      2.00000
      3      -8.3754      2.00000
      4      -4.9218      2.00000
      5       1.7011     -0.00000
      6       6.8975      0.00000
      7       7.6729      0.00000
      8       8.1926      0.00000

 k-point    12 :      -0.3333    0.1111    0.0000
  band No.  band energies     occupation 
      1     -18.9648      2.00000
      2      -9.3225      2.00000
      3      -7.4727      2.00000
      4      -6.6999      2.00000
      5       3.3898     -0.00000
      6       5.1884      0.00000
      7       5.8854      0.00000
      8       7.7656      0.00000

 k-point    13 :      -0.2222    0.1111    0.0000
  band No.  band energies     occupation 
      1     -20.1388      2.00000
      2      -8.1150      2.00000
      3      -6.8941      2.00000
      4      -5.8708      2.00000
      5       2.4850     -0.00000
      6       4.2844      0.00000
      7       5.2441      0.00000
      8       7.3161      0.00000

 k-point    14 :      -0.1111    0.1111    0.0000
  band No.  band energies     occupation 
      1     -20.7322      2.00000
      2      -8.7697      2.00000
      3      -5.5899      2.00000
      4      -4.4199      2.00000
      5       1.7521     -0.00000
      6       3.4848     -0.00000
      7       4.7105      0.00000
      8       7.2325      0.00000

 k-point    15 :       0.0000    0.2222    0.0000
  band No.  band energies     occupation 
      1     -19.8445      2.00000
      2      -8.1211      2.00000
      3      -7.5691      2.00000
      4      -5.8574      2.00000
      5       2.8154     -0.00000
      6       4.6745      0.00000
      7       5.3173      0.00000
      8       6.8579      0.00000

 k-point    16 :       0.1111    0.2222    0.0000
  band No.  band energies     occupation 
      1     -18.9639      2.00000
      2      -9.3855      2.00000
      3      -7.3909      2.00000
      4      -6.6953      2.00000
      5       3.3831     -0.00000
      6       5.1932      0.00000
      7       5.8679      0.00000
      8       7.7519      0.00000

 k-point    17 :       0.2222    0.2222    0.0000
  band No.  band energies     occupation 
      1     -17.5299      2.00000
      2     -10.8019      2.00000
      3      -9.5845      2.00000
      4      -5.1542      2.00000
      5       2.2435     -0.00000
      6       6.5683      0.00000
      7       7.6904      0.00000
      8       9.5870      0.00000

 k-point    18 :       0.3333    0.2222    0.0000
  band No.  band energies     occupation 
      1     -15.6606      2.00000
      2     -12.9728      2.00000
      3     -10.5789      2.00000
      4      -3.3569      2.00000
      5       0.3210     -0.00000
      6       9.0733      0.00000
      7       9.3571      0.00000
      8      10.4304      0.00000

 k-point    19 :       0.4444    0.2222    0.0000
  band No.  band energies     occupation 
      1     -15.6608      2.00000
      2     -13.0104      2.00000
      3     -10.5384      2.00000
      4      -3.3192      2.00000
      5       0.2572     -0.00000
      6       9.0876      0.00000
      7       9.3753      0.00000
      8      10.4862      0.00000

 k-point    20 :      -0.4444    0.2222    0.0000
  band No.  band energies     occupation 
      1     -17.5360      2.00000
      2     -10.9637      2.00000
      3      -9.4071      2.00000
      4      -5.1185      2.00000
      5       2.1491     -0.00000
      6       6.5619      0.00000
      7       7.7124      0.00000
      8       9.5853      0.00000

 k-point    21 :      -0.3333    0.2222    0.0000
  band No.  band energies     occupation 
      1     -18.9696      2.00000
      2      -9.5418      2.00000
      3      -7.2093      2.00000
      4      -6.6735      2.00000
      5       3.3418     -0.00000
      6       5.1641      0.00000
      7       5.8706      0.00000
      8       7.7690      0.00000

 k-point    22 :      -0.2222    0.2222    0.0000
  band No.  band energies     occupation 
      1     -19.8477      2.00000
      2      -8.2292      2.00000
      3      -7.5857      2.00000
[...]
      5       0.6706     -0.00000
      6       6.3903      0.00000
      7       8.0259      0.00000
      8       9.4259      0.00000

 k-point     6 :       0.0000    0.1111    0.0000
  band No.  band energies     occupation 
      1     -20.8199      2.00000
      2      -8.8359      2.00000
      3      -5.7434      2.00000
      4      -4.9174      2.00000
      5       1.9817     -0.00000
      6       3.4724     -0.00000
      7       5.0754      0.00000
      8       6.9828      0.00000

 k-point     7 :       0.1111    0.1111    0.0000
  band No.  band energies     occupation 
      1     -20.2341      2.00000
      2      -8.1257      2.00000
      3      -7.3908      2.00000
      4      -5.9777      2.00000
      5       2.7920     -0.00000
      6       4.2749      0.00000
      7       5.8778      0.00000
      8       7.5781      0.00000

 k-point     8 :       0.2222    0.1111    0.0000
  band No.  band energies     occupation 
      1     -19.0747      2.00000
      2      -9.7926      2.00000
      3      -7.4337      2.00000
      4      -6.7425      2.00000
      5       4.3952      0.00000
      6       4.8385      0.00000
      7       5.8768      0.00000
      8       7.4740      0.00000

 k-point     9 :       0.3333    0.1111    0.0000
  band No.  band energies     occupation 
      1     -17.3746      2.00000
      2     -12.5208      2.00000
      3      -8.3808      2.00000
      4      -4.8290      2.00000
      5       1.8510     -0.00000
      6       6.8124      0.00000
      7       7.7804      0.00000
      8       8.2065      0.00000

 k-point    10 :       0.4444    0.1111    0.0000
  band No.  band energies     occupation 
      1     -15.4898      2.00000
      2     -14.7884      2.00000
      3      -8.7040      2.00000
      4      -3.3760      2.00000
      5       0.0066     -0.00000
      6       7.6003      0.00000
      7       9.9203      0.00000
      8      10.0124      0.00000

 k-point    11 :      -0.4444    0.1111    0.0000
  band No.  band energies     occupation 
      1     -17.3706      2.00000
      2     -12.5087      2.00000
      3      -8.4007      2.00000
      4      -4.8473      2.00000
      5       1.8961     -0.00000
      6       6.8076      0.00000
      7       7.7539      0.00000
      8       8.1955      0.00000

 k-point    12 :      -0.3333    0.1111    0.0000
  band No.  band energies     occupation 
      1     -19.0709      2.00000
      2      -9.7329      2.00000
      3      -7.5076      2.00000
      4      -6.7555      2.00000
      5       4.3958      0.00000
      6       4.8998      0.00000
      7       5.8705      0.00000
      8       7.4576      0.00000

 k-point    13 :      -0.2222    0.1111    0.0000
  band No.  band energies     occupation 
      1     -20.2317      2.00000
      2      -8.1329      2.00000
      3      -7.2130      2.00000
      4      -6.1786      2.00000
      5       2.7913     -0.00000
      6       4.2727      0.00000
      7       5.8739      0.00000
      8       7.6276      0.00000

 k-point    14 :      -0.1111    0.1111    0.0000
  band No.  band energies     occupation 
      1     -20.8190      2.00000
      2      -8.8383      2.00000
      3      -5.5028      2.00000
      4      -5.1749      2.00000
      5       1.9814     -0.00000
      6       3.4717     -0.00000
      7       5.0740      0.00000
      8       6.8511      0.00000

 k-point    15 :       0.0000    0.2222    0.0000
  band No.  band energies     occupation 
      1     -19.9389      2.00000
      2      -8.1921      2.00000
      3      -7.7853      2.00000
      4      -6.2101      2.00000
      5       3.1945     -0.00000
      6       4.6641      0.00000
      7       6.2401      0.00000
      8       6.8428      0.00000

 k-point    16 :       0.1111    0.2222    0.0000
  band No.  band energies     occupation 
      1     -19.0722      2.00000
      2      -9.7070      2.00000
      3      -7.5395      2.00000
      4      -6.7538      2.00000
      5       4.3969      0.00000
      6       4.8737      0.00000
      7       5.8893      0.00000
      8       7.4721      0.00000

 k-point    17 :       0.2222    0.2222    0.0000
  band No.  band energies     occupation 
      1     -17.6549      2.00000
      2     -11.2814      2.00000
      3      -9.5182      2.00000
      4      -5.1098      2.00000
      5       2.5489     -0.00000
      6       6.4201      0.00000
      7       7.7444      0.00000
      8       9.4794      0.00000

 k-point    18 :       0.3333    0.2222    0.0000
  band No.  band energies     occupation 
      1     -15.7587      2.00000
      2     -13.4054      2.00000
      3     -10.5602      2.00000
      4      -3.1165      2.00000
      5       0.1912     -0.00000
      6       9.1655      0.00000
      7       9.6439      0.00000
      8      10.4642      0.00000

 k-point    19 :       0.4444    0.2222    0.0000
  band No.  band energies     occupation 
      1     -15.7571      2.00000
      2     -13.3758      2.00000
      3     -10.5963      2.00000
      4      -3.1636      2.00000
      5       0.2667     -0.00000
      6       9.1610      0.00000
      7       9.6026      0.00000
      8      10.4639      0.00000

 k-point    20 :      -0.4444    0.2222    0.0000
  band No.  band energies     occupation 
      1     -17.6479      2.00000
      2     -11.1471      2.00000
      3      -9.6762      2.00000
      4      -5.1492      2.00000
      5       2.6617     -0.00000
      6       6.4200      0.00000
      7       7.7266      0.00000
      8       9.4607      0.00000

 k-point    21 :      -0.3333    0.2222    0.0000
  band No.  band energies     occupation 
      1     -19.0661      2.00000
      2      -9.5349      2.00000
      3      -7.7500      2.00000
      4      -6.7779      2.00000
      5       4.3986      0.00000
      6       4.9681      0.00000
      7       5.8981      0.00000
      8       7.4513      0.00000

 k-point    22 :      -0.2222    0.2222    0.0000
  band No.  band energies     occupation 
      1     -19.9356      2.00000
      2      -8.0118      2.00000
      3      -7.7957      2.00000
      4      -6.4313      2.00000
      5       3.1942     -0.00000
      6       4.6582      0.00000
      7       6.2332      0.00000
      8       6.8831      0.00000

 k-point    23 :      -0.1111    0.2222    0.0000
  band No.  band energies     occupation 
      1     -20.2291      2.00000
      2      -8.1403      2.00000
      3      -6.9496      2.00000
      4      -6.4548      2.00000
      5       2.7903     -0.00000
      6       4.2706      0.00000
      7       5.8676      0.00000
      8       7.3756      0.00000

 k-point    24 :       0.0000    0.3333    0.0000
  band No.  band energies     occupation 
      1     -18.4934      2.00000
      2     -11.1260      2.00000
      3      -7.2712      2.00000
      4      -6.1248      2.00000
      5       3.6329     -0.00000
      6       5.2115      0.00000
      7       6.5722      0.00000
      8       6.7042      0.00000

 k-point    25 :       0.1111    0.3333    0.0000
  band No.  band energies     occupation 
      1     -17.3713      2.00000
      2     -12.4339      2.00000
      3      -8.4997      2.00000
      4      -4.8796      2.00000
      5       1.9655     -0.00000
      6       6.8156      0.00000
      7       7.6934      0.00000
      8       8.2102      0.00000

 k-point    26 :       0.2222    0.3333    0.0000
  band No.  band energies     occupation 
      1     -15.7690      2.00000
      2     -13.3202      2.00000
      3     -10.6462      2.00000
      4      -3.1863      2.00000
      5       0.3008     -0.00000
      6       9.1693      0.00000
      7       9.6258      0.00000
      8      10.3761      0.00000

 k-point    27 :       0.3333    0.3333    0.0000
  band No.  band energies     occupation 
      1     -14.1836      2.00000
      2     -13.9581      2.00000
      3     -12.1639      2.00000
      4      -1.5351      1.97175
      5      -1.2215      0.02825
      6       9.2695      0.00000
      7      11.4759      0.00000
      8      11.6858      0.00000

 k-point    28 :       0.4444    0.3333    0.0000
  band No.  band energies     occupation 
      1     -15.7783      2.00000
      2     -13.1935      2.00000
      3     -10.7822      2.00000
      4      -3.2934      2.00000
      5       0.4765     -0.00000
      6       9.1710      0.00000
      7       9.5647      0.00000
      8      10.3362      0.00000

 k-point    29 :      -0.4444    0.3333    0.0000
  band No.  band energies     occupation 
      1     -17.3649      2.00000
      2     -12.3263      2.00000
      3      -8.6524      2.00000
      4      -4.9455      2.00000
      5       2.1224     -0.00000
      6       6.8140      0.00000
      7       7.6306      0.00000
      8       8.2027      0.00000

 k-point    30 :      -0.3333    0.3333    0.0000
  band No.  band energies     occupation 
      1     -18.4872      2.00000
      2     -11.0124      2.00000
      3      -7.4390      2.00000
      4      -6.1599      2.00000
      5       3.7420     -0.00000
      6       5.2117      0.00000
      7       6.5261      0.00000
      8       6.7126      0.00000

 k-point    31 :      -0.2222    0.3333    0.0000
  band No.  band energies     occupation 
      1     -19.0622      2.00000
      2      -9.4592      2.00000
      3      -7.8336      2.00000
      4      -6.7911      2.00000
      5       4.3981      0.00000
      6       5.0338      0.00000
      7       5.8909      0.00000
      8       7.4062      0.00000

 k-point    32 :      -0.1111    0.3333    0.0000
  band No.  band energies     occupation 
      1     -19.0645      2.00000
      2      -9.5754      2.00000
      3      -7.6930      2.00000
      4      -6.7800      2.00000
      5       4.3970      0.00000
      6       5.0009      0.00000
      7       5.8755      0.00000
      8       7.4117      0.00000

 k-point    33 :       0.0000    0.4444    0.0000
  band No.  band energies     occupation 
      1     -16.5549      2.00000
      2     -13.9036      2.00000
      3      -7.8500      2.00000
      4      -4.2364      2.00000
      5       0.8700     -0.00000
      6       6.3074      0.00000
      7       8.0290      0.00000
      8       9.4257      0.00000

 k-point    34 :       0.1111    0.4444    0.0000
  band No.  band energies     occupation 
      1     -15.5724      2.00000
      2     -14.6174      2.00000
      3      -8.8248      2.00000
      4      -3.5278      2.00000
      5       0.2424     -0.00000
      6       7.5084      0.00000
      7       9.9061      0.00000
      8      10.0398      0.00000

 k-point    35 :       0.2222    0.4444    0.0000
  band No.  band energies     occupation 
      1     -15.7651      2.00000
      2     -13.2582      2.00000
      3     -10.7202      2.00000
      4      -3.2744      2.00000
      5       0.4477     -0.00000
      6       9.1570      0.00000
      7       9.5404      0.00000
      8      10.3259      0.00000

 k-point    36 :       0.3333    0.4444    0.0000
  band No.  band energies     occupation 
      1     -15.7760      2.00000
      2     -13.1606      2.00000
      3     -10.8205      2.00000
      4      -3.3350      2.00000
      5       0.5485     -0.00000
      6       9.1636      0.00000
      7       9.5206      0.00000
      8      10.2880      0.00000

 k-point    37 :       0.4444    0.4444    0.0000
  band No.  band energies     occupation 
      1     -15.6364      2.00000
      2     -14.4607      2.00000
      3      -8.9571      2.00000
      4      -3.6616      2.00000
      5       0.4601     -0.00000
      6       7.4717      0.00000
      7       9.8917      0.00000
      8      10.0629      0.00000

 k-point    38 :      -0.4444    0.4444    0.0000
  band No.  band energies     occupation 
      1     -16.5606      2.00000
      2     -13.8038      2.00000
      3      -7.9968      2.00000
      4      -4.3388      2.00000
      5       1.0603     -0.00000
      6       6.2779      0.00000
      7       8.0317      0.00000
      8       9.4256      0.00000

 k-point    39 :      -0.3333    0.4444    0.0000
  band No.  band energies     occupation 
      1     -17.3607      2.00000
      2     -12.3133      2.00000
      3      -8.6705      2.00000
      4      -4.9630      2.00000
      5       2.1690     -0.00000
      6       6.8059      0.00000
      7       7.5856      0.00000
      8       8.1903      0.00000

 k-point    40 :      -0.2222    0.4444    0.0000
  band No.  band energies     occupation 
      1     -17.6405      2.00000
      2     -10.9869      2.00000
      3      -9.8545      2.00000
      4      -5.1886      2.00000
      5       2.7787     -0.00000
      6       6.4189      0.00000
      7       7.7063      0.00000
      8       9.4013      0.00000

 k-point    41 :      -0.1111    0.4444    0.0000
  band No.  band energies     occupation 
      1     -17.3632      2.00000
      2     -12.4089      2.00000
      3      -8.5376      2.00000
      4      -4.9154      2.00000
      5       2.0570     -0.00000
      6       6.8025      0.00000
      7       7.6220      0.00000
      8       8.1868      0.00000


--------------------------------------------------------------------------------------------------------


 soft charge-density along one line, spin component           1
         0         1         2         3         4         5         6         7         8         9
 total charge-density along one line
 
 pseudopotential strength for first ion, spin component:           1
 13.672  -8.439   0.001   0.001   0.002  -0.001   0.005   0.023
 -8.439   5.934  -0.000  -0.000  -0.000  -0.001  -0.006  -0.023
  0.001  -0.000 -10.664   0.000  -0.012  41.713  -0.000   0.010
  0.001  -0.000   0.000 -10.464  -0.000  -0.000  41.540   0.000
  0.002  -0.000  -0.012  -0.000 -10.667   0.010   0.000  41.714
 -0.001  -0.001  41.713  -0.000   0.010  -8.349   0.000   0.117
  0.005  -0.006  -0.000  41.540   0.000   0.000  -9.919   0.002
  0.023  -0.023   0.010   0.000  41.714   0.117   0.002  -8.342
 total augmentation occupancy for first ion, spin component:           1
  0.913  -0.114  -0.000   0.003  -0.007   0.000   0.000   0.001
 -0.114   0.019   0.000   0.001   0.001  -0.000  -0.000  -0.000
 -0.000   0.000   0.461  -0.000   0.004  -0.022  -0.000  -0.001
  0.003   0.001  -0.000   0.371   0.000  -0.000  -0.010  -0.000
 -0.007   0.001   0.004   0.000   0.462  -0.001  -0.000  -0.022
  0.000  -0.000  -0.022  -0.000  -0.001   0.001   0.000   0.000
  0.000  -0.000  -0.000  -0.010  -0.000   0.000   0.000   0.000
  0.001  -0.000  -0.001  -0.000  -0.022   0.000   0.000   0.001


------------------------ aborting loop because EDIFF is reached ----------------------------------------


    CHARGE:  cpu time    0.0102: real time    0.0102
    FORLOC:  cpu time    0.0004: real time    0.0004
    FORNL :  cpu time    0.0408: real time    0.0409
    FORHAR:  cpu time    0.0024: real time    0.0024
    MIXING:  cpu time    0.0004: real time    0.0004
    OFIELD:  cpu time    0.0000: real time    0.0000

 VOLUME and BASIS-vectors are now :
 -----------------------------------------------------------------------------
  energy-cutoff  :      400.00
  volume of cell :       51.60
      direct lattice vectors                 reciprocal lattice vectors
     2.441046239  0.000000000  0.000000000     0.409660409  0.236517547  0.000000000
    -1.220523120  2.114008055  0.000000000     0.000000000  0.473035094  0.000000000
     0.000000000  0.000000000 10.000000000     0.000000000  0.000000000  0.100000000

  length of vectors
     2.441046239  2.441046239 10.000000000     0.473035094  0.473035094  0.100000000


 FORCES acting on ions
    electron-ion (+dipol)            ewald-force                    non-local-force                 convergence-correction
 -----------------------------------------------------------------------------------------------
   -.319E+01 -.182E+00 -.477E+01   0.426E+01 0.242E+00 0.500E+01   -.975E-02 -.180E-01 -.501E+00   0.123E-03 -.641E-04 -.443E-06
   0.319E+01 0.182E+00 0.477E+01   -.426E+01 -.242E+00 -.500E+01   0.975E-02 0.180E-01 0.501E+00   -.123E-03 0.641E-04 0.442E-06
 -----------------------------------------------------------------------------------------------
   -.254E-05 -.790E-05 0.866E-06   -.178E-14 0.516E-14 0.000E+00   0.000E+00 0.000E+00 0.111E-15   0.398E-08 -.638E-08 -.463E-09
 
 
 POSITION                                       TOTAL-FORCE (eV/Angst)
 -----------------------------------------------------------------------------------
      0.09703      0.21050      5.10804         1.064061      0.041337     -0.278082
      0.12023      1.62023      5.09196        -1.064061     -0.041337      0.278082
 -----------------------------------------------------------------------------------
    total drift:                               -0.000003     -0.000008      0.000001


--------------------------------------------------------------------------------------------------------



  FREE ENERGIE OF THE ION-ELECTRON SYSTEM (eV)
  ---------------------------------------------------
  free  energy   TOTEN  =       -18.49435958 eV

  energy  without entropy=      -18.49470562  energy(sigma->0) =      -18.49447493
 
 d Force =-0.1199793E-02[-0.130E-02,-0.110E-02]  d Energy =-0.1199785E-02-0.718E-08
 d Force = 0.1334573E-01[ 0.150E-01, 0.117E-01]  d Ewald  = 0.1334577E-01-0.380E-07


--------------------------------------------------------------------------------------------------------


    POTLOK:  cpu time    0.0097: real time    0.0098


--------------------------------------------------------------------------------------------------------


           RANDOM_SEED =         299237020                0                0
   IONSTEP:  cpu time    0.0001: real time    0.0001

  ENERGY OF THE ELECTRON-ION-THERMOSTAT SYSTEM (eV)
  ---------------------------------------------------
% ion-electron   TOTEN  =       -18.494360  see above
  kinetic energy EKIN   =         0.344393
  kin. lattice  EKIN_LAT=         0.000000  (temperature 2664.33 K)
  nose potential ES     =         0.000000
  nose kinetic   EPS    =         0.000000
  ---------------------------------------------------
  total energy   ETOTAL =       -18.149967 eV

  maximum distance moved by ions :      0.18E-03


 mean value of Nose-termostat <S>:     1.000 mean value of <T> :  1466.269
 mean temperature <T/S>/<1/S>  :  1466.269

    WAVPRE:  cpu time    0.0138: real time    0.0205
    FEWALD:  cpu time    0.0001: real time    0.0001
    ORTHCH:  cpu time    0.0157: real time    0.0158
 Prediction of Wavefunctions ALPHA= 2.013 BETA=-1.013
    POTLOK:  cpu time    0.0098: real time    0.0099
    EDDIAG:  cpu time    0.0232: real time    0.0233
     LOOP+:  cpu time    0.3443: real time    0.3611
    4ORBIT:  cpu time    0.0000: real time    0.0000

 total amount of memory used by VASP MPI-rank0    40563. kBytes
=======================================================================

   base      :      30000. kBytes
   nonlr-proj:        220. kBytes
   fftplans  :       1011. kBytes
   grid      :       1691. kBytes
   one-center:          6. kBytes
   wavefun   :       7635. kBytes
 
  
  
 General timing and accounting informations for this job:
 ========================================================
  
                  Total CPU time used (sec):       34.248
                            User time (sec):       33.949
                          System time (sec):        0.299
                         Elapsed time (sec):       35.666
  
                   Maximum memory used (kb):       45904.
                   Average memory used (kb):           0.
  
                          Minor page faults:        31679
                          Major page faults:            0
                 Voluntary context switches:        12068
