<preamble>

<basis_specs>
===============================================================================
Mg                   Z=  12    Mass=  24.305        Charge= 0.17977+309
Lmxo=1 Lmxkb= 1    BasisType=split      Semic=T
L=0  Nsemic=1  Cnfigmx=3
          i=1  nzeta=1  polorb=0  (2s)  (semicore shell)
            splnorm:   0.15000    
               vcte:    40.000    
               rinn:    2.1111    
               qcoe:    0.0000    
               qyuk:    0.0000    
               qwid:   0.10000E-01
                rcs:    2.3457    
            lambdas:    1.0000    
          i=2  nzeta=1  polorb=0  (3s)
            splnorm:   0.15000    
               vcte:    40.000    
               rinn:    6.3793    
               qcoe:    0.0000    
               qyuk:    0.0000    
               qwid:   0.10000E-01
                rcs:    7.0810    
            lambdas:    1.0000    
L=1  Nsemic=1  Cnfigmx=3
          i=1  nzeta=1  polorb=0  (2p)  (semicore shell)
            splnorm:   0.15000    
               vcte:    40.000    
               rinn:    2.3553    
               qcoe:    0.0000    
               qyuk:    0.0000    
               qwid:   0.10000E-01
                rcs:    2.6143    
            lambdas:    1.0000    
          i=2  nzeta=0  polorb=0  (3p)  (empty shell (??) )
-------------------------------------------------------------------------------
L=0  Nkbl=2  erefs: 0.17977+309 0.17977+309
L=1  Nkbl=2  erefs: 0.17977+309 0.17977+309
===============================================================================
</basis_specs>

<pseudopotential_header>
 Mg pb nrl nc  
 ONCVPSP-3.2017-10-31Hamann's oncvpsp                        
 2s 2.00  r= 1.16/2p 6.00  r= 1.56/                                     2s:2p:3s:
</pseudopotential_header>
</preamble>
Mg                            # Symbol
Mg                            # Label
   12                         # Atomic number
     10.0000000000                             # Valence charge
     24.3050000000        # Mass 
     145.002162675        # Self energy 
   1   3                      # Lmax for basis, no. of nl orbitals 
   1   4                      # Lmax for projectors, no. of nl KB projectors
# PAOs:__________________________
  0  2  1  0  2.000000   #orbital l, n, z, is_polarized, population
 500    0.4700763321090937E-02     2.345680897224378     # npts, delta, cutoff
     0.000000000000000         3.514317307008670    
    0.4700763321090937E-02     3.514126052967129    
    0.9401526642181874E-02     3.513727457282397    
    0.1410228996327281E-01     3.513063104816129    
    0.1880305328436375E-01     3.512132812798077    
    0.2350381660545468E-01     3.510936386610516    
    0.2820457992654562E-01     3.509473620484247    
    0.3290534324763656E-01     3.507744319036334    
    0.3760610656872750E-01     3.505748322310798    
    0.4230686988981843E-01     3.503485530920679    
    0.4700763321090937E-01     3.500955929516238    
    0.5170839653200031E-01     3.498159607392334    
    0.5640915985309124E-01     3.495096775485443    
    0.6110992317418218E-01     3.491767779394582    
    0.6581068649527312E-01     3.488173108384665    
    0.7051144981636405E-01     3.484313400583802    
    0.7521221313745499E-01     3.480189444762774    
    0.7991297645854593E-01     3.475802179190139    
    0.8461373977963686E-01     3.471152688100786    
    0.8931450310072780E-01     3.466242196312909    
    0.9401526642181873E-01     3.461072062492325    
    0.9871602974290968E-01     3.455643771506703    
    0.1034167930640006         3.449958926245726    
    0.1081175563850915         3.444019239214416    
    0.1128183197061825         3.437826524140991    
    0.1175190830272734         3.431382687781440    
    0.1222198463483644         3.424689722051386    
    0.1269206096694553         3.417749696573146    
    0.1316213729905462         3.410564751691293    
    0.1363221363116372         3.403137091983135    
    0.1410228996327281         3.395468980270089    
    0.1457236629538191         3.387562732121301    
    0.1504244262749100         3.379420710830602    
    0.1551251895960009         3.371045322841291    
    0.1598259529170919         3.362439013589643    
    0.1645267162381828         3.353604263736193    
    0.1692274795592737         3.344543585753975    
    0.1739282428803647         3.335259520843786    
    0.1786290062014556         3.325754636148242    
    0.1833297695225465         3.316031522238703    
    0.1880305328436375         3.306092790851340    
    0.1927312961647284         3.295941072851323    
    0.1974320594858194         3.285579016406322    
    0.2021328228069103         3.275009285353042    
    0.2068335861280012         3.264234557742558    
    0.2115343494490922         3.253257524552291    
    0.2162351127701831         3.242080888554148    
    0.2209358760912740         3.230707363330045    
    0.2256366394123650         3.219139672427250    
    0.2303374027334559         3.207380548647233    
    0.2350381660545469         3.195432733462578    
    0.2397389293756378         3.183298976557291    
    0.2444396926967287         3.170982035486368    
    0.2491404560178197         3.158484675450882    
    0.2538412193389106         3.145809669184965    
    0.2585419826600016         3.132959796951223    
    0.2632427459810925         3.119937846640819    
    0.2679435093021834         3.106746613974304    
    0.2726442726232743         3.093388902798734    
    0.2773450359443653         3.079867525476158    
    0.2820457992654562         3.066185303357733    
    0.2867465625865472         3.052345067337074    
    0.2914473259076381         3.038349658475406    
    0.2961480892287290         3.024201928690273    
    0.3008488525498200         3.009904741498462    
    0.3055496158709109         2.995460972802781    
    0.3102503791920018         2.980873511711400    
    0.3149511425130928         2.966145261377380    
    0.3196519058341837         2.951279139845188    
    0.3243526691552747         2.936278080890195    
    0.3290534324763656         2.921145034836464    
    0.3337541957974565         2.905882969337728    
    0.3384549591185474         2.890494870106115    
    0.3431557224396384         2.874983741573195    
    0.3478564857607294         2.859352607468113    
    0.3525572490818203         2.843604511298071    
    0.3572580124029112         2.827742516717139    
    0.3619587757240021         2.811769707770512    
    0.3666595390450931         2.795689189002501    
    0.3713603023661840         2.779504085418255    
    0.3760610656872749         2.763217542290841    
    0.3807618290083659         2.746832724807418    
    0.3854625923294568         2.730352817550256    
    0.3901633556505478         2.713781023810635    
    0.3948641189716387         2.697120564824654    
    0.3995648822927296         2.680374678546674    
    0.4042656456138206         2.663546618564778    
    0.4089664089349115         2.646639652860242    
    0.4136671722560025         2.629657062273969    
    0.4183679355770934         2.612602138900072    
    0.4230686988981843         2.595478184358286    
    0.4277694622192753         2.578288507958514    
    0.4324702255403662         2.561036424771840    
    0.4371709888614572         2.543725253622940    
    0.4418717521825481         2.526358315019241    
    0.4465725155036390         2.508938929032311    
    0.4512732788247300         2.491470413146710    
    0.4559740421458209         2.473956080091172    
    0.4606748054669118         2.456399235666337    
    0.4653755687880027         2.438803176582414    
    0.4700763321090937         2.421171188319134    
    0.4747770954301846         2.403506543019346    
    0.4794778587512756         2.385812497426281    
    0.4841786220723665         2.368092290873382    
    0.4888793853934574         2.350349143334260    
    0.4935801487145484         2.332586253539104    
    0.4982809120356393         2.314806797162655    
    0.5029816753567302         2.297013925087680    
    0.5076824386778211         2.279210761746747    
    0.5123832019989122         2.261400403544181    
    0.5170839653200031         2.243585917359048    
    0.5217847286410940         2.225770339129288    
    0.5264854919621850         2.207956672516368    
    0.5311862552832759         2.190147887649214    
    0.5358870186043668         2.172346919945683    
    0.5405877819254578         2.154556669009430    
    0.5452885452465487         2.136779997599678    
    0.5499893085676396         2.119019730671186    
    0.5546900718887305         2.101278654481579    
    0.5593908352098215         2.083559515763007    
    0.5640915985309124         2.065865020955190    
    0.5687923618520033         2.048197835496852    
    0.5734931251730944         2.030560583172591    
    0.5781938884941853         2.012955845512395    
    0.5828946518152762         1.995386161241070    
    0.5875954151363671         1.977854025775000    
    0.5922961784574581         1.960361890763865    
    0.5969969417785490         1.942912163675023    
    0.6016977050996399         1.925507207418533    
    0.6063984684207309         1.908149340010878    
    0.6110992317418218         1.890840834275678    
    0.6157999950629127         1.873583917579833    
    0.6205007583840036         1.856380771603676    
    0.6252015217050946         1.839233532143905    
    0.6299022850261855         1.822144288948152    
    0.6346030483472765         1.805115085580225    
    0.6393038116683675         1.788147919315147    
    0.6440045749894584         1.771244741063214    
    0.6487053383105493         1.754407455322417    
    0.6534061016316403         1.737637920158623    
    0.6581068649527312         1.720937947212990    
    0.6628076282738221         1.704309301736149    
    0.6675083915949130         1.687753702648729    
    0.6722091549160040         1.671272822627829    
    0.6769099182370949         1.654868288219078    
    0.6816106815581858         1.638541679973941    
    0.6863114448792768         1.622294532611917    
    0.6910122082003677         1.606128335207293    
    0.6957129715214587         1.590044531400123    
    0.7004137348425497         1.574044519631046    
    0.7051144981636406         1.558129653399597    
    0.7098152614847315         1.542301241545580    
    0.7145160248058224         1.526560548553102    
    0.7192167881269134         1.510908794876801    
    0.7239175514480043         1.495347157289783    
    0.7286183147690952         1.479876769252737    
    0.7333190780901861         1.464498721303682    
    0.7380198414112771         1.449214061467744    
    0.7427206047323680         1.434023795686305    
    0.7474213680534589         1.418928888264901    
    0.7521221313745499         1.403930262339102    
    0.7568228946956409         1.389028800357654    
    0.7615236580167318         1.374225344582110    
    0.7662244213378228         1.359520697602078    
    0.7709251846589137         1.344915622865294    
    0.7756259479800046         1.330410845221582    
    0.7803267113010955         1.316007051479810    
    0.7850274746221865         1.301704890976886    
    0.7897282379432774         1.287504976157827    
    0.7944290012643683         1.273407883165900    
    0.7991297645854593         1.259414152441825    
    0.8038305279065502         1.245524289331004    
    0.8085312912276411         1.231738764697731    
    0.8132320545487322         1.218058015545316    
    0.8179328178698231         1.204482445641063    
    0.8226335811909140         1.191012426145017    
    0.8273343445120049         1.177648296241414    
    0.8320351078330959         1.164390363771738    
    0.8367358711541868         1.151238905868339    
    0.8414366344752777         1.138194169587514    
    0.8461373977963687         1.125256372541026    
    0.8508381611174596         1.112425703524982    
    0.8555389244385505         1.099702323145086    
    0.8602396877596414         1.087086364437229    
    0.8649404510807324         1.074577933482437    
    0.8696412144018233         1.062177110015251    
    0.8743419777229143         1.049883948024564    
    0.8790427410440053         1.037698476346079    
    0.8837435043650962         1.025620699245483    
    0.8884442676861871         1.013650596991560    
    0.8931450310072780         1.001788126418446    
    0.8978457943283690        0.9900332214763090    
    0.9025465576494599        0.9783857937697814    
    0.9072473209705508        0.9668457330835084    
    0.9119480842916418        0.9554129078942465    
    0.9166488476127327        0.9440871658689997    
    0.9213496109338236        0.9328683343487291    
    0.9260503742549145        0.9217562208172507    
    0.9307511375760055        0.9107506133549845    
    0.9354519008970965        0.8998512810772772    
    0.9401526642181874        0.8890579745571254    
    0.9448534275392784        0.8783704262321271    
    0.9495541908603693        0.8677883507956142    
    0.9542549541814602        0.8573114455719644    
    0.9589557175025512        0.8469393908761470    
    0.9636564808236421        0.8366718503576449    
    0.9683572441447330        0.8265084713289472    
    0.9730580074658239        0.8164488850788651    
    0.9777587707869149        0.8064927071710183    
    0.9824595341080058        0.7966395377278431    
    0.9871602974290967        0.7868889617005987    
    0.9918610607501877        0.7772405491258476    
    0.9965618240712787        0.7676938553689628    
     1.001262587392370        0.7582484213552698    
     1.005963350713460        0.7489037737894522    
     1.010664114034551        0.7396594253639039    
     1.015364877355642        0.7305148749567660    
     1.020065640676733        0.7214696078203680    
     1.024766403997824        0.7125230957608633    
     1.029467167318915        0.7036747973098699    
     1.034167930640006        0.6949241578888981    
     1.038868693961097        0.6862706099674283    
     1.043569457282188        0.6777135732154329    
     1.048270220603279        0.6692524546512165    
     1.052970983924370        0.6608866487853718    
     1.057671747245461        0.6526155377616907    
     1.062372510566552        0.6444384914958406    
     1.067073273887643        0.6363548678125971    
     1.071774037208734        0.6283640125823979    
     1.076474800529825        0.6204652598579834    
     1.081175563850916        0.6126579320118249    
     1.085876327172006        0.6049413398750262    
     1.090577090493097        0.5973147828783710    
     1.095277853814188        0.5897775491960926    
     1.099978617135279        0.5823289158929740    
     1.104679380456370        0.5749681490752692    
     1.109380143777461        0.5676945040039642    
     1.114080907098552        0.5605072246579219    
     1.118781670419643        0.5534055446248189    
     1.123482433740734        0.5463886873204202    
     1.128183197061825        0.5394558659807177    
     1.132883960382916        0.5326062839808597    
     1.137584723704007        0.5258391351934503    
     1.142285487025098        0.5191536043186865    
     1.146986250346189        0.5125488662431066    
     1.151687013667280        0.5060240856391297    
     1.156387776988371        0.4995784173990362    
     1.161088540309462        0.4932110091385974    
     1.165789303630552        0.4869210043261440    
     1.170490066951643        0.4807075457060944    
     1.175190830272734        0.4745697788093869    
     1.179891593593825        0.4685068550882261    
     1.184592356914916        0.4625179339989899    
     1.189293120236007        0.4566021828269065    
     1.193993883557098        0.4507587759255353    
     1.198694646878189        0.4449868938944783    
     1.203395410199280        0.4392857237892376    
     1.208096173520371        0.4336544592965543    
     1.212796936841462        0.4280923009064490    
     1.217497700162553        0.4225984558485116    
     1.222198463483644        0.4171721380744967    
     1.226899226804735        0.4118125682570965    
     1.231599990125825        0.4065189737919941    
     1.236300753446916        0.4012905887980184    
     1.241001516768007        0.3961266541157534    
     1.245702280089098        0.3910264173050573    
     1.250403043410189        0.3859891326415086    
     1.255103806731280        0.3810140611118253    
     1.259804570052371        0.3761004704082624    
     1.264505333373462        0.3712476349219943    
     1.269206096694553        0.3664548357355056    
     1.273906860015644        0.3617213606139737    
     1.278607623336735        0.3570465039956635    
     1.283308386657826        0.3524295669813388    
     1.288009149978917        0.3478698573226706    
     1.292709913300008        0.3433666894096693    
     1.297410676621099        0.3389193842571124    
     1.302111439942190        0.3345272694899827    
     1.306812203263281        0.3301896793279039    
     1.311512966584371        0.3259059545685697    
     1.316213729905462        0.3216754425701596    
     1.320914493226553        0.3174974972327406    
     1.325615256547644        0.3133714789786403    
     1.330316019868735        0.3092967547317876    
     1.335016783189826        0.3052726978960199    
     1.339717546510917        0.3012986883323367    
     1.344418309832008        0.2973741123351051    
     1.349119073153099        0.2934983626072076    
     1.353819836474190        0.2896708382341204    
     1.358520599795281        0.2858909446569232    
     1.363221363116372        0.2821580936442347    
     1.367922126437463        0.2784717032630710    
     1.372622889758554        0.2748311978486170    
     1.377323653079644        0.2712360079729238    
     1.382024416400735        0.2676855704125191    
     1.386725179721827        0.2641793281149390    
     1.391425943042917        0.2607167301641850    
     1.396126706364008        0.2572972317451043    
     1.400827469685099        0.2539202941067163    
     1.405528233006190        0.2505853845244709    
     1.410228996327281        0.2472919762614725    
     1.414929759648372        0.2440395485286703    
     1.419630522969463        0.2408275864440305    
     1.424331286290554        0.2376555809907120    
     1.429032049611645        0.2345230289742598    
     1.433732812932736        0.2314294329788416    
     1.438433576253827        0.2283743013225483    
     1.443134339574918        0.2253571480117791    
     1.447835102896009        0.2223774926947464    
     1.452535866217100        0.2194348606141190    
     1.457236629538190        0.2165287825588369    
     1.461937392859281        0.2136587948151292    
     1.466638156180372        0.2108244391167628    
     1.471338919501463        0.2080252625945571    
     1.476039682822554        0.2052608177251949    
     1.480740446143645        0.2025306622793685    
     1.485441209464736        0.1998343592692854    
     1.490141972785827        0.1971714768955727    
     1.494842736106918        0.1945415884936120    
     1.499543499428009        0.1919442724793181    
     1.504244262749100        0.1893791122945116    
     1.508945026070191        0.1868456963518175    
     1.513645789391282        0.1843436179790396    
     1.518346552712373        0.1818724753630383    
     1.523047316033464        0.1794318714936579    
     1.527748079354555        0.1770214141071442    
     1.532448842675646        0.1746407156292745    
     1.537149605996736        0.1722893931181255    
     1.541850369317827        0.1699670682058335    
     1.546551132638918        0.1676733670407348    
     1.551251895960009        0.1654079202305783    
     1.555952659281100        0.1631703627861194    
     1.560653422602191        0.1609603340640118    
     1.565354185923282        0.1587774777124577    
     1.570054949244373        0.1566214416176887    
     1.574755712565464        0.1544918778552456    
     1.579456475886555        0.1523884426492824    
     1.584157239207646        0.1503107963311986    
     1.588858002528737        0.1482586033003444    
     1.593558765849828        0.1462315319824906    
     1.598259529170919        0.1442292547825574    
     1.602960292492009        0.1422514480390488    
     1.607661055813100        0.1402977919779099    
     1.612361819134191        0.1383679706672976    
     1.617062582455282        0.1364616719751202    
     1.621763345776373        0.1345785875261268    
     1.626464109097464        0.1327184126594239    
     1.631164872418555        0.1308808463862995    
     1.635865635739646        0.1290655913478535    
     1.640566399060737        0.1272723537731280    
     1.645267162381828        0.1255008434375899    
     1.649967925702919        0.1237507736219449    
     1.654668689024010        0.1220218610713747    
     1.659369452345101        0.1203138259551023    
     1.664070215666192        0.1186263918262961    
     1.668770978987283        0.1169592855823253    
     1.673471742308374        0.1153122374253521    
     1.678172505629465        0.1136849808232685    
     1.682873268950555        0.1120772524709818    
     1.687574032271646        0.1104887922520470    
     1.692274795592737        0.1089193432006415    
     1.696975558913828        0.1073686514638869    
     1.701676322234919        0.1058364662645165    
     1.706377085556010        0.1043225398638817    
     1.711077848877101        0.1028266275253056    
     1.715778612198192        0.1013484874777775    
     1.720479375519283        0.9988788087998486E-01
     1.725180138840374        0.9844457178468995E-01
     1.729880902161465        0.9701832710344324E-01
     1.734581665482556        0.9560891657163309E-01
     1.739282428803647        0.9421611271387346E-01
     1.743983192124738        0.9283969080972702E-01
     1.748683955445829        0.9147942885975976E-01
     1.753384718766920        0.9013510755192894E-01
     1.758085482088011        0.8880651022830167E-01
     1.762786245409101        0.8749342285210049E-01
     1.767487008730192        0.8619563397507858E-01
     1.772187772051283        0.8491293470521911E-01
     1.776888535372374        0.8364511867475803E-01
     1.781589298693465        0.8239198200852912E-01
     1.786290062014556        0.8115332329263047E-01
     1.790990825335647        0.7992894354340606E-01
     1.795691588656738        0.7871864617674618E-01
     1.800392351977829        0.7752223697770166E-01
     1.805093115298920        0.7633952407040852E-01
     1.809793878620011        0.7517031788832426E-01
     1.814494641941102        0.7401443114477356E-01
     1.819195405262193        0.7287167880379576E-01
     1.823896168583284        0.7174187805129999E-01
     1.828596931904374        0.7062484826652127E-01
     1.833297695225465        0.6952041099377351E-01
     1.837998458546556        0.6842838991450260E-01
     1.842699221867647        0.6734861081963335E-01
     1.847399985188738        0.6628090158220831E-01
     1.852100748509829        0.6522509213031841E-01
     1.856801511830920        0.6418101442032008E-01
     1.861502275152011        0.6314850241033960E-01
     1.866203038473102        0.6212739203405998E-01
     1.870903801794193        0.6111752117478889E-01
     1.875604565115284        0.6011872963980547E-01
     1.880305328436375        0.5913085913498339E-01
     1.885006091757466        0.5815375323968779E-01
     1.889706855078557        0.5718725738194400E-01
     1.894407618399648        0.5623121881387451E-01
     1.899108381720739        0.5528548658740392E-01
     1.903809145041830        0.5434991153022701E-01
     1.908509908362920        0.5342434622203873E-01
     1.913210671684011        0.5250864497102619E-01
     1.917911435005102        0.5160266379061240E-01
     1.922612198326193        0.5070626037646016E-01
     1.927312961647284        0.4981929408372505E-01
     1.932013724968375        0.4894162590455867E-01
     1.936714488289466        0.4807311844585963E-01
     1.941415251610557        0.4721363590726935E-01
     1.946116014931648        0.4636304405941018E-01
     1.950816778252739        0.4552121022236402E-01
     1.955517541573830        0.4468800324438781E-01
     1.960218304894921        0.4386329348086614E-01
     1.964919068216012        0.4304695277349369E-01
     1.969619831537103        0.4223885442969198E-01
     1.974320594858193        0.4143887320225142E-01
     1.979021358179284        0.4064688526920003E-01
     1.983722121500375        0.3986276821389599E-01
     1.988422884821466        0.3908640100534060E-01
     1.993123648142557        0.3831766397871070E-01
     1.997824411463648        0.3755643881610629E-01
     2.002525174784739        0.3680260852751331E-01
     2.007225938105830        0.3605605743197832E-01
     2.011926701426921        0.3531667113899072E-01
     2.016627464748012        0.3458433653007458E-01
     2.021328228069103        0.3385894174058343E-01
     2.026028991390194        0.3314037614169825E-01
     2.030729754711285        0.3242853032262619E-01
     2.035430518032376        0.3172329607299551E-01
     2.040131281353466        0.3102456636544955E-01
     2.044832044674557        0.3033223533842996E-01
     2.049532807995649        0.2964619827915503E-01
     2.054233571316740        0.2896635160678504E-01
     2.058934334637831        0.2829259285577463E-01
     2.063635097958922        0.2762482065941034E-01
     2.068335861280012        0.2696293473352990E-01
     2.073036624601103        0.2630683586042350E-01
     2.077737387922194        0.2565642587291019E-01
     2.082438151243285        0.2501160763859371E-01
     2.087138914564376        0.2437228504428978E-01
     2.091839677885467        0.2373836298062583E-01
     2.096540441206558        0.2310974732681082E-01
     2.101241204527649        0.2248634493557118E-01
     2.105941967848740        0.2186806361825492E-01
     2.110642731169831        0.2125481213009533E-01
     2.115343494490922        0.2064650015563974E-01
     2.120044257812013        0.2004303829433370E-01
     2.124745021133104        0.1944433804633443E-01
     2.129445784454195        0.1885031181190372E-01
     2.134146547775285        0.1826087322930736E-01
     2.138847311096376        0.1767593974324570E-01
     2.143548074417467        0.1709544064264309E-01
     2.148248837738558        0.1651933099691980E-01
     2.152949601059649        0.1594760771748542E-01
     2.157650364380740        0.1538032313101213E-01
     2.162351127701831        0.1481759334999417E-01
     2.167051891022922        0.1425960091381758E-01
     2.171752654344013        0.1370659252309899E-01
     2.176453417665104        0.1315887319872663E-01
     2.181154180986195        0.1261679819407553E-01
     2.185854944307286        0.1208076376123370E-01
     2.190555707628377        0.1155119758961749E-01
     2.195256470949468        0.1102854947736027E-01
     2.199957234270558        0.1051328258936046E-01
     2.204657997591649        0.1000586550288809E-01
     2.209358760912740        0.9506765134319820E-02
     2.214059524233831        0.9016440568726955E-02
     2.218760287554922        0.8535337768213866E-02
     2.223461050876013        0.8063885107439812E-02
     2.228161814197104        0.7602489669822438E-02
     2.232862577518195        0.7151534231278671E-02
     2.237563340839286        0.6711374857008655E-02
     2.242264104160377        0.6282339038676376E-02
     2.246964867481468        0.5864724302976267E-02
     2.251665630802559        0.5458797226995046E-02
     2.256366394123650        0.5064792800331113E-02
     2.261067157444741        0.4682914078105498E-02
     2.265767920765831        0.4313332072400700E-02
     2.270468684086922        0.3956185831880924E-02
     2.275169447408013        0.3611582659892756E-02
     2.279870210729104        0.3279598419478739E-02
     2.284570974050195        0.2960277868309089E-02
     2.289271737371287        0.2653634955533596E-02
     2.293972500692377        0.2359652992460660E-02
     2.298673264013468        0.2078284573216042E-02
     2.303374027334559        0.1809451057472676E-02
     2.308074790655650        0.1553041309156222E-02
     2.312775553976741        0.1308909156798093E-02
     2.317476317297832        0.1076868572062802E-02
     2.322177080618923        0.8566845165371570E-03
     2.326877843940014        0.6480548063049461E-03
     2.331578607261105        0.4505708462434849E-03
     2.336279370582196        0.2636178405808455E-03
     2.340980133903287        0.8602848491184197E-04
     2.345680897224378         0.000000000000000    
  0  3  1  0  2.000000   #orbital l, n, z, is_polarized, population
 500    0.1419042964105027E-01     7.081024390884087     # npts, delta, cutoff
     0.000000000000000         1.061256417561059    
    0.1419042964105027E-01     1.060678935578067    
    0.2838085928210055E-01     1.058999362903544    
    0.4257128892315083E-01     1.056200383973983    
    0.5676171856420110E-01     1.052284449576083    
    0.7095214820525138E-01     1.047257759200235    
    0.8514257784630165E-01     1.041131196892821    
    0.9933300748735192E-01     1.033920471034344    
    0.1135234371284022         1.025645713109976    
    0.1277138667694525         1.016330844961545    
    0.1419042964105028         1.006002925817728    
    0.1560947260515530        0.9946915788375831    
    0.1702851556926033        0.9824285239240202    
    0.1844755853336536        0.9692472089806906    
    0.1986660149747038        0.9551825209554552    
    0.2128564446157541        0.9402705583289018    
    0.2270468742568044        0.9245484507746519    