<preamble>

<basis_specs>
===============================================================================
O                    Z=   8    Mass=  15.999        Charge= 0.17977+309
Lmxo=1 Lmxkb= 2    BasisType=split      Semic=F
L=0  Nsemic=0  Cnfigmx=2
          i=1  nzeta=1  polorb=0  (2s)
            splnorm:   0.15000    
               vcte:    40.000    
               rinn:    3.2048    
               qcoe:    0.0000    
               qyuk:    0.0000    
               qwid:   0.10000E-01
                rcs:    3.5609    
            lambdas:    1.0000    
L=1  Nsemic=0  Cnfigmx=2
          i=1  nzeta=1  polorb=0  (2p)
            splnorm:   0.15000    
               vcte:    40.000    
               rinn:    3.9086    
               qcoe:    0.0000    
               qyuk:    0.0000    
               qwid:   0.10000E-01
                rcs:    4.3428    
            lambdas:    1.0000    
-------------------------------------------------------------------------------
L=0  Nkbl=1  erefs: 0.17977+309
L=1  Nkbl=1  erefs: 0.17977+309
L=2  Nkbl=1  erefs: 0.17977+309
===============================================================================
</basis_specs>

<pseudopotential_header>
 O  pb nrl pcec
 ONCVPSP-3.2017-10-31Hamann's oncvpsp                        
 2s 2.00  r= 1.36/2p 4.00  r= 1.46/3d 0.00  r= 1.26/                    2s:2p:
</pseudopotential_header>
</preamble>
O                             # Symbol
O                             # Label
    8                         # Atomic number
     6.00000000000                             # Valence charge
     15.9990000000        # Mass 
     48.1918783921        # Self energy 
   1   2                      # Lmax for basis, no. of nl orbitals 
   2   5                      # Lmax for projectors, no. of nl KB projectors
# PAOs:__________________________
  0  2  1  0  2.000000   #orbital l, n, z, is_polarized, population
 500    0.7136159085512582E-02     3.560943383670778     # npts, delta, cutoff
     0.000000000000000         1.359774985610956    
    0.7136159085512582E-02     1.359781029267729    
    0.1427231817102516E-01     1.359839832645742    
    0.2140847725653774E-01     1.359937732830389    
    0.2854463634205033E-01     1.360074546121557    
    0.3568079542756291E-01     1.360250017701013    
    0.4281695451307549E-01     1.360463815270879    
    0.4995311359858808E-01     1.360715524733797    
    0.5708927268410065E-01     1.361004645685554    
    0.6422543176961323E-01     1.361330586622703    
    0.7136159085512582E-01     1.361692659985069    
    0.7849774994063841E-01     1.362090077188898    
    0.8563390902615098E-01     1.362521943805905    
    0.9277006811166356E-01     1.362987255030619    
    0.9990622719717615E-01     1.363484891559259    
    0.1070423862826887         1.364013615981136    
    0.1141785453682013         1.364572069760091    
    0.1213147044537139         1.365158770860418    
    0.1284508635392265         1.365772112050103    
    0.1355870226247391         1.366410359895017    
    0.1427231817102516         1.367071654441278    
    0.1498593407957642         1.367754009569698    
    0.1569954998812768         1.368455313996026    
    0.1641316589667894         1.369173332883271    
    0.1712678180523020         1.369905710027729    
    0.1784039771378146         1.370649970577698    
    0.1855401362233271         1.371403524243184    
    0.1926762953088397         1.372163668955527    
    0.1998124543943523         1.372927594937592    
    0.2069486134798649         1.373692389147515    
    0.2140847725653774         1.374455040061796    
    0.2212209316508900         1.375212442766476    
    0.2283570907364026         1.375961404328060    
    0.2354932498219152         1.376698649418622    
    0.2426294089074278         1.377420826172116    
    0.2497655679929404         1.378124512251129    
    0.2569017270784529         1.378806221105297    
    0.2640378861639655         1.379462408404217    
    0.2711740452494781         1.380089478629064    
    0.2783102043349907         1.380683791808265    
    0.2854463634205033         1.381241670383444    
    0.2925825225060159         1.381759406192702    
    0.2997186815915284         1.382233267558921    
    0.3068548406770410         1.382659506471463    
    0.3139909997625536         1.383034365850189    
    0.3211271588480662         1.383354086881370    
    0.3282633179335788         1.383614916415616    
    0.3353994770190913         1.383813114418488    
    0.3425356361046039         1.383944961464935    
    0.3496717951901165         1.384006766268883    
    0.3568079542756291         1.383994873239361    
    0.3639441133611417         1.383905670054020    
    0.3710802724466543         1.383735595239960    
    0.3782164315321668         1.383481145750064    
    0.3853525906176794         1.383138884520516    
    0.3924887497031920         1.382705447991780    
    0.3996249087887046         1.382177553570930    
    0.4067610678742172         1.381552007007880    
    0.4138972269597297         1.380825709651988    
    0.4210333860452423         1.379995665548746    
    0.4281695451307549         1.379058988329319    
    0.4353057042162675         1.378012907838934    
    0.4424418633017801         1.376854776444086    
    0.4495780223872927         1.375582074953827    
    0.4567141814728052         1.374192418087809    
    0.4638503405583178         1.372683559423606    
    0.4709864996438304         1.371053395758989    
    0.4781226587293430         1.369299970831316    
    0.4852588178148556         1.367421478346306    
    0.4923949769003682         1.365416264281996    
    0.4995311359858807         1.363282828450016    
    0.5066672950713933         1.361019825314857    
    0.5138034541569059         1.358626064091274    
    0.5209396132424184         1.356100508159283    
    0.5280757723279310         1.353442273853970    
    0.5352119314134436         1.350650628702288    
    0.5423480904989563         1.347724989190156    
    0.5494842495844688         1.344664918149685    
    0.5566204086699814         1.341470121857985    
    0.5637565677554940         1.338140446935625    
    0.5708927268410066         1.334675877125256    
    0.5780288859265191         1.331076530019480    
    0.5851650450120317         1.327342653793465    
    0.5923012040975443         1.323474623982562    
    0.5994373631830568         1.319472940329995    
    0.6065735222685694         1.315338223715429    
    0.6137096813540820         1.311071213162505    
    0.6208458404395946         1.306672762913360    
    0.6279819995251072         1.302143839550510    
    0.6351181586106198         1.297485519141837    
    0.6422543176961324         1.292698984382280    
    0.6493904767816450         1.287785521706162    
    0.6565266358671575         1.282746518346318    
    0.6636627949526701         1.277583459320015    
    0.6707989540381827         1.272297924326434    
    0.6779351131236953         1.266891584545915    
    0.6850712722092078         1.261366199336803    
    0.6922074312947204         1.255723612831109    
    0.6993435903802330         1.249965750435275    
    0.7064797494657457         1.244094615246610    
    0.7136159085512582         1.238112284399568    
    0.7207520676367708         1.232020905358561    
    0.7278882267222834         1.225822692930690    
    0.7350243858077959         1.219519923490095    
    0.7421605448933085         1.213114932736655    
    0.7492967039788211         1.206610111983937    
    0.7564328630643337         1.200007904207662    
    0.7635690221498462         1.193310800415299    
    0.7707051812353588         1.186521336087000    
    0.7778413403208714         1.179642087699674    
    0.7849774994063839         1.172675669343510    
    0.7921136584918966         1.165624729437915    
    0.7992498175774092         1.158491947551497    
    0.8063859766629218         1.151280031328566    
    0.8135221357484343         1.143991713522625    
    0.8206582948339469         1.136629749135673    
    0.8277944539194595         1.129196912660587    
    0.8349306130049721         1.121695995422751    
    0.8420667720904846         1.114129803016090    
    0.8492029311759972         1.106501152828021    
    0.8563390902615098         1.098812871647389    
    0.8634752493470224         1.091067793349149    
    0.8706114084325349         1.083268756649550    
    0.8777475675180476         1.075418602925589    
    0.8848837266035602         1.067520174092735    
    0.8920198856890728         1.059576310535201    
    0.8991560447745853         1.051589849083389    
    0.9062922038600979         1.043563621033567    
    0.9134283629456105         1.035500450205275    
    0.9205645220311230         1.027403151032398    
    0.9277006811166356         1.019274526684350    
    0.9348368402021482         1.011117367214224    
    0.9419729992876608         1.002934447731260    
    0.9491091583731733        0.9947285265953534    
    0.9562453174586860        0.9865023436318081    
    0.9633814765441986        0.9782586183648276    
    0.9705176356297112        0.9700000482686751    
    0.9776537947152237        0.9617293070357068    
    0.9847899538007363        0.9534490428608166    
    0.9919261128862489        0.9451618767420884    
    0.9990622719717615        0.9368704007977326    
     1.006198431057274        0.9285771765995912    
     1.013334590142787        0.9202847335237377    
     1.020470749228299        0.9119955671188881    
     1.027606908313812        0.9037121374935180    
     1.034743067399324        0.8954368677227562    
     1.041879226484837        0.8871721422762947    
     1.049015385570349        0.8789203054686809    
     1.056151544655862        0.8706836599335128    
     1.063287703741375        0.8624644651231741    
     1.070423862826887        0.8542649358358876    
     1.077560021912400        0.8460872407719366    
     1.084696180997913        0.8379335011210584    
     1.091832340083425        0.8298057891830688    
     1.098968499168938        0.8217061270238909    
     1.106104658254450        0.8136364851692257    
     1.113240817339963        0.8055987813381961    
     1.120376976425475        0.7975948792193319    
     1.127513135510988        0.7896265872913485    
     1.134649294596501        0.7816956576911983    
     1.141785453682013        0.7738037851319254    
     1.148921612767526        0.7659526058728503    
     1.156057771853038        0.7581436964072271    
     1.163193930938551        0.7503785710089973    
     1.170330090024063        0.7426586836373115    
     1.177466249109576        0.7349854265176544    
     1.184602408195089        0.7273601292055940    
     1.191738567280601        0.7197840579229988    
     1.198874726366114        0.7122584149642716    
     1.206010885451626        0.7047843381749263    
     1.213147044537139        0.6973629005047794    
     1.220283203622651        0.6899951096378898    
     1.227419362708164        0.6826819077012936    
     1.234555521793677        0.6754241710544299    
     1.241691680879189        0.6682227101610199    
     1.248827839964702        0.6610782695449983    
     1.255963999050214        0.6539915278319246    
     1.263100158135727        0.6469630978771104    
     1.270236317221240        0.6399935269815066    
     1.277372476306752        0.6330832971961712    
     1.284508635392265        0.6262328257159112    
     1.291644794477777        0.6194424653624844    
     1.298780953563290        0.6127125051576074    
     1.305917112648803        0.6060431709854657    
     1.313053271734315        0.5994346263197129    
     1.320189430819828        0.5928869729594504    
     1.327325589905340        0.5864002523412200    
     1.334461748990853        0.5799744471019257    
     1.341597908076365        0.5736094806057657    
     1.348734067161878        0.5673052160935365    
     1.355870226247391        0.5610614610255723    
     1.363006385332903        0.5548779777253232    
     1.370142544418416        0.5487544958440530    
     1.377278703503928        0.5426907247647375    
     1.384414862589441        0.5366863633643597    
     1.391551021674953        0.5307411022433107    
     1.398687180760466        0.5248546216710313    
     1.405823339845979        0.5190265908134486    
     1.412959498931491        0.5132566690197649    
     1.420095658017004        0.5075445068416397    
     1.427231817102516        0.5018897464284191    
     1.434367976188029        0.4962920219923331    
     1.441504135273542        0.4907509603089335    
     1.448640294359054        0.4852661812307177    
     1.455776453444567        0.4798372982225155    
     1.462912612530079        0.4744639189209456    
     1.470048771615592        0.4691456457218312    
     1.477184930701104        0.4638820764343496    
     1.484321089786617        0.4586728049013399    
     1.491457248872130        0.4535174214337331    
     1.498593407957642        0.4484155130823191    
     1.505729567043155        0.4433666638890009    
     1.512865726128667        0.4383704552090664    
     1.520001885214180        0.4334264660317301    
     1.527138044299692        0.4285342732722687    
     1.534274203385205        0.4236934520404143    
     1.541410362470718        0.4189035759003907    
     1.548546521556230        0.4141642171214457    
     1.555682680641743        0.4094749469173447    
     1.562818839727255        0.4048353356750058    
     1.569954998812768        0.4002449531727510    
     1.577091157898280        0.3957033687886772    
     1.584227316983793        0.3912101516994775    
     1.591363476069306        0.3867648710700365    
     1.598499635154818        0.3823670962341195    
     1.605635794240331        0.3780163968664869    
     1.612771953325844        0.3737123431467282    
     1.619908112411356        0.3694545059151215    
     1.627044271496869        0.3652424568208127    
     1.634180430582381        0.3610757684625978    
     1.641316589667894        0.3569540145225727    
     1.648452748753406        0.3528767698929050    
     1.655588907838919        0.3488436107960575    
     1.662725066924432        0.3448541148988858    
     1.669861226009944        0.3409078614207764    
     1.676997385095457        0.3370044312352261    
     1.684133544180969        0.3331434069650678    
     1.691269703266482        0.3293243730726776    
     1.698405862351994        0.3255469159480411    
     1.705542021437507        0.3218106239934843    
     1.712678180523020        0.3181150877027948    
     1.719814339608532        0.3144598997319210    
     1.726950498694045        0.3108446549634087    
     1.734086657779557        0.3072689505662293    
     1.741222816865070        0.3037323860507294    
     1.748358975950583        0.3002345633204299    
     1.755495135036095        0.2967750867223021    
     1.762631294121608        0.2933535630999238    
     1.769767453207120        0.2899696018444916    
     1.776903612292633        0.2866228149416365    
     1.784039771378146        0.2833128170099553    
     1.791175930463658        0.2800392253359459    
     1.798312089549171        0.2768016599061537    
     1.805448248634683        0.2735997434384220    
     1.812584407720196        0.2704331014104104    
     1.819720566805708        0.2673013620855878    
     1.826856725891221        0.2642041565365338    
     1.833992884976734        0.2611411186660336    
     1.841129044062246        0.2581118852260113    
     1.848265203147759        0.2551160958343970    
     1.855401362233271        0.2521533929899930    
     1.862537521318784        0.2492234220854394    
     1.869673680404296        0.2463258314183522    
     1.876809839489809        0.2434602722007269    
     1.883945998575322        0.2406263985666706    
     1.891082157660834        0.2378238675785531    
     1.898218316746347        0.2350523392316353    
     1.905354475831859        0.2323114764572507    
     1.912490634917372        0.2296009451246071    
     1.919626794002885        0.2269204140412669    
     1.926762953088397        0.2242695549523736    
     1.933899112173910        0.2216480425386795    
     1.941035271259422        0.2190555544134304    
     1.948171430344935        0.2164917711181694    
     1.955307589430447        0.2139563761174998    
     1.962443748515960        0.2114490557928703    
     1.969579907601473        0.2089694994354218    
     1.976716066686985        0.2065173992379454    
     1.983852225772498        0.2040924502860012    
     1.990988384858010        0.2016943505482297    
     1.998124543943523        0.1993228008659085    
     2.005260703029036        0.1969775049417882    
     2.012396862114548        0.1946581693282466    
     2.019533021200061        0.1923645034147964    
     2.026669180285573        0.1900962194149871    
     2.033805339371086        0.1878530323527264    
     2.040941498456598        0.1856346600480611    
     2.048077657542111        0.1834408231024452    
     2.055213816627623        0.1812712448835266    
     2.062349975713136        0.1791256515094760    
     2.069486134798649        0.1770037718328949    
     2.076622293884161        0.1749053374243227    
     2.083758452969674        0.1728300825553666    
     2.090894612055187        0.1707777441814843    
     2.098030771140699        0.1687480619244416    
     2.105166930226212        0.1667407780544613    
     2.112303089311724        0.1647556374720947    
     2.119439248397237        0.1627923876898265    
     2.126575407482749        0.1608507788134423    
     2.133711566568262        0.1589305635231671    
     2.140847725653774        0.1570314970546040    
     2.147983884739287        0.1551533371794808    
     2.155120043824799        0.1532958441862297    
     2.162256202910312        0.1514587808604081    
     2.169392361995825        0.1496419124649799    
     2.176528521081337        0.1478450067204743    
     2.183664680166850        0.1460678337850299    
     2.190800839252363        0.1443101662343433    
     2.197936998337875        0.1425717790415300    
     2.205073157423388        0.1408524495569145    
     2.212209316508901        0.1391519574877584    
     2.219345475594413        0.1374700848779379    
     2.226481634679926        0.1358066160875818    
     2.233617793765438        0.1341613377726814    
     2.240753952850951        0.1325340388646794    
     2.247890111936463        0.1309245105500497    
     2.255026271021976        0.1293325462498745    
     2.262162430107488        0.1277579415994301    
     2.269298589193001        0.1262004944277860    
     2.276434748278513        0.1246600047374279    
     2.283570907364026        0.1231362746839108    
     2.290707066449539        0.1216291085555479    
     2.297843225535051        0.1201383127531452    
     2.304979384620564        0.1186636957697833    
     2.312115543706077        0.1172050681706567    
     2.319251702791589        0.1157622425729748    
     2.326387861877102        0.1143350336259287    
     2.333524020962614        0.1129232579907319    
     2.340660180048127        0.1115267343207344    
     2.347796339133640        0.1101452832416218    
     2.354932498219152        0.1087787273316981    
     2.362068657304665        0.1074268911022586    
     2.369204816390177        0.1060896009780573    
     2.376340975475690        0.1047666852778702    
     2.383477134561202        0.1034579741951605    
     2.390613293646715        0.1021632997788482    
     2.397749452732227        0.1008824959141846    
     2.404885611817740        0.9961539830373820E-01
     2.412021770903253        0.9836184444849433E-01
     2.419157929988765        0.9712167362906682E-01
     2.426294089074278        0.9589472688702957E-01
     2.433430248159790        0.9468084700636638E-01
     2.440566407245303        0.9347987849504315E-01
     2.447702566330816        0.9229166756670340E-01
     2.454838725416328        0.9111606212248784E-01
     2.461974884501841        0.8995291173298282E-01
     2.469111043587353        0.8880206762029530E-01
     2.476247202672866        0.8766338264025819E-01
     2.483383361758378        0.8653671126476700E-01
     2.490519520843891        0.8542190956424757E-01
     2.497655679929404        0.8431883519025779E-01
     2.504791839014916        0.8322734735822290E-01
     2.511927998100429        0.8214730683030474E-01
     2.519064157185941        0.8107857589840856E-01
     2.526200316271454        0.8002101836732335E-01
     2.533336475356966        0.7897449953800098E-01
     2.540472634442479        0.7793888619097188E-01
     2.547608793527992        0.7691404656989731E-01
     2.554744952613504        0.7589985036526040E-01
     2.561881111699017        0.7489616869819626E-01
     2.569017270784530        0.7390287410445727E-01
     2.576153429870042        0.7291984051851907E-01
     2.583289588955555        0.7194694325782508E-01
     2.590425748041067        0.7098405900716698E-01
     2.597561907126580        0.7003106580320557E-01
     2.604698066212092        0.6908784301912992E-01
     2.611834225297605        0.6815427134945305E-01
     2.618970384383117        0.6723023279494675E-01
     2.626106543468630        0.6631561064771216E-01
     2.633242702554143        0.6541028947638924E-01
     2.640378861639655        0.6451415511150052E-01
     2.647515020725168        0.6362709463093352E-01
     2.654651179810680        0.6274899634555633E-01
     2.661787338896193        0.6187974978497113E-01
     2.668923497981706        0.6101924568340099E-01
     2.676059657067218        0.6016737596571130E-01
     2.683195816152731        0.5932403373356510E-01
     2.690331975238244        0.5848911325171045E-01
     2.697468134323756        0.5766250993440173E-01
     2.704604293409269        0.5684412033195079E-01
     2.711740452494781        0.5603384211741032E-01
     2.718876611580294        0.5523157407338696E-01
     2.726012770665806        0.5443721607898411E-01
     2.733148929751319        0.5365066909687324E-01
     2.740285088836831        0.5287183516049342E-01
     2.747421247922344        0.5210061736137737E-01
     2.754557407007856        0.5133691983660513E-01
     2.761693566093369        0.5058064775638155E-01
     2.768829725178882        0.4983170731173923E-01
     2.775965884264394        0.4909000570236586E-01
     2.783102043349907        0.4835545112455249E-01
     2.790238202435420        0.4762795275926629E-01
     2.797374361520932        0.4690742076034211E-01
     2.804510520606445        0.4619376624279504E-01
     2.811646679691957        0.4548690127125346E-01
     2.818782838777470        0.4478673884850763E-01
     2.825918997862983        0.4409319290417771E-01
     2.833055156948495        0.4340617828349866E-01
     2.840191316034008        0.4272561073621763E-01
     2.847327475119520        0.4205140690560912E-01
     2.854463634205033        0.4138348431760178E-01
     2.861599793290545        0.4072176137001815E-01
     2.868735952376058        0.4006615732192623E-01
     2.875872111461570        0.3941659228310106E-01
     2.883008270547083        0.3877298720359636E-01
     2.890144429632596        0.3813526386342512E-01
     2.897280588718108        0.3750334486234646E-01
     2.904416747803621        0.3687715360976087E-01
     2.911552906889133        0.3625661431470974E-01
     2.918689065974646        0.3564165197598001E-01
     2.925825225060159        0.3503219237231337E-01
     2.932961384145671        0.3442816205271614E-01
     2.940097543231184        0.3382948832687267E-01
     2.947233702316696        0.3323609925565919E-01
     2.954369861402209        0.3264792364175607E-01
     2.961506020487721        0.3206489102036054E-01
     2.968642179573234        0.3148693164999605E-01
     2.975778338658746        0.3091397650341886E-01
     2.982914497744259        0.3034595725862019E-01
     2.990050656829772        0.2978280628992333E-01
     2.997186815915284        0.2922445665917535E-01
     3.004322975000797        0.2867084210702961E-01
     3.011459134086309        0.2812189704432269E-01
     3.018595293171822        0.2757755654354092E-01
     3.025731452257335        0.2703775633037703E-01
     3.032867611342847        0.2650243277537608E-01
     3.040003770428360        0.2597152288566941E-01
     3.047139929513873        0.2544496429679608E-01
     3.054276088599385        0.2492269526460976E-01
     3.061412247684898        0.2440465465727169E-01
     3.068548406770410        0.2389078194732829E-01
     3.075684565855923        0.2338101720387076E-01
     3.082820724941435        0.2287530108477892E-01
     3.089956884026948        0.2237357482904549E-01
     3.097093043112460        0.2187578024918181E-01
     3.104229202197973        0.2138185972370281E-01
     3.111365361283486        0.2089175618969122E-01
     3.118501520368998        0.2040541313544017E-01
     3.125637679454511        0.1992277459317200E-01
     3.132773838540023        0.1944378513183423E-01
     3.139909997625536        0.1896838984997059E-01
     3.147046156711049        0.1849653436866636E-01
     3.154182315796561        0.1802816482456786E-01
     3.161318474882074        0.1756322786297401E-01
     3.168454633967587        0.1710167063100130E-01
     3.175590793053099        0.1664344077081801E-01
     3.182726952138612        0.1618848641295024E-01
     3.189863111224124        0.1573675616965663E-01
     3.196999270309637        0.1528819912837218E-01
     3.204135429395149        0.1484276484521913E-01
     3.211271588480662        0.1440040333858628E-01
     3.218407747566174        0.1396106508277194E-01
     3.225543906651687        0.1352470100176947E-01
     3.232680065737199        0.1309126247726703E-01
     3.239816224822712        0.1266070171320547E-01
     3.246952383908225        0.1223297444453350E-01
     3.254088542993737        0.1180804837085947E-01
     3.261224702079250        0.1138591770512584E-01
     3.268360861164763        0.1096661981041918E-01
     3.275497020250275        0.1055024905667889E-01
     3.282633179335788        0.1013696506842701E-01
     3.289769338421300        0.9726994856415972E-02
     3.296905497506813        0.9320629747790273E-02
     3.304041656592325        0.8918218557365852E-02
     3.311177815677838        0.8520158429902084E-02
     3.318313974763350        0.8126884534796987E-02
     3.325450133848863        0.7738859490132210E-02
     3.332586292934376        0.7356563115848013E-02
     3.339722452019888        0.6980482894213524E-02
     3.346858611105401        0.6611105351458085E-02
     3.353994770190913        0.6248908458965152E-02
     3.361130929276426        0.5894355074879641E-02
     3.368267088361939        0.5547887397296112E-02
     3.375403247447451        0.5209922370201550E-02
     3.382539406532964        0.4880847966872899E-02
     3.389675565618476        0.4561020267942651E-02
     3.396811724703989        0.4250761249677347E-02
     3.403947883789502        0.3950357199919262E-02
     3.411084042875014        0.3660057683121812E-02
     3.418220201960527        0.3380074980905718E-02
     3.425356361046039        0.3110583939892903E-02
     3.432492520131552        0.2851722163715973E-02
     3.439628679217064        0.2603590490695514E-02
     3.446764838302577        0.2366253702363441E-02
     3.453900997388089        0.2139741410417545E-02
     3.461037156473602        0.1924049070277927E-02
     3.468173315559115        0.1719139067347029E-02
     3.475309474644627        0.1524941815920183E-02
     3.482445633730140        0.1341356797916785E-02
     3.489581792815653        0.1168253444478526E-02
     3.496717951901165        0.1005471718824990E-02
     3.503854110986678        0.8528221747663654E-03
     3.510990270072190        0.7100851009690306E-03
     3.518126429157703        0.5770080201412096E-03
     3.525262588243216        0.4533000458875381E-03
     3.532398747328728        0.3386196818216586E-03
     3.539534906414241        0.2325470791108349E-03
     3.546671065499753        0.1345123547001293E-03
     3.553807224585266        0.4353932090743952E-04
     3.560943383670778         0.000000000000000    
  1  2  1  0  4.000000   #orbital l, n, z, is_polarized, population
 500    0.8703097585492765E-02     4.342845695160890     # npts, delta, cutoff
     0.000000000000000         4.592763716844664    
    0.8703097585492765E-02     4.592042239906103    
    0.1740619517098553E-01     4.589878693201800    
    0.2610929275647830E-01     4.586275732664520    
    0.3481239034197106E-01     4.581237761470286    
    0.4351548792746383E-01     4.574770899627521    
    0.5221858551295659E-01     4.566882942053526    
    0.6092168309844936E-01     4.557583308000094    
    0.6962478068394212E-01     4.546882983900795    
    0.7832787826943488E-01     4.534794461775896    
    0.8703097585492765E-01     4.521331675241785    
    0.9573407344042043E-01     4.506509934957698    
    0.1044371710259132         4.490345865040740    
    0.1131402686114059         4.472857341630448    
    0.1218433661968987         4.454063434423016    
    0.1305464637823915         4.433984351654056    
    0.1392495613678842         4.412641388708724    
    0.1479526589533770         4.390056880293012    
    0.1566557565388698         4.366254155914577    
    0.1653588541243625         4.341257498294067    
    0.1740619517098553         4.315092104253645    
    0.1827650492953481         4.287784047598013    
    0.1914681468808409         4.259360243506523    
    0.2001712444663336         4.229848413982881    
    0.2088743420518264         4.199277053952551    