Siesta Version  : NO_VERSION_LABEL_AVAILABLE
Architecture    : ----
Compiler version: GNU-13.2.1
Compiler flags  : -fallow-argument-mismatch;-O3 -march=native
PP flags        : ----
Libraries       : ----
Parallelisations: MPI
GEMM3M support
NetCDF support
NetCDF-4 support

Runtime information:
* Directory : /home/arnold/Documents/Code/SIESTA/ahkole-sisl-files/tests/sisl/io/siesta/stdout-charges/mulliken_voronoi_hirshfeld_md_scf
* Running in serial mode (only 1 MPI rank).
>> Start of run:  23-APR-2024  16:26:31

                           *********************** 
                           *  WELCOME TO SIESTA  * 
                           *********************** 

reinit: Reading from standard input
reinit: Dumping input in INPUT_TMP.39151
************************** Dump of input data file ****************************
LatticeConstant 1.0 Ang
%block LatticeVectors
 2.13000000 1.22975607 0.00000000
 2.13000000 -1.22975607 0.00000000
 0.00000000 0.00000000 14.20000000
%endblock LatticeVectors
NumberOfAtoms 2
AtomicCoordinatesFormat Ang
%block AtomicCoordinatesAndAtomicSpecies
 0.00000000 0.00000000 0.00000000 1 # 1: C
 1.38000000 0.00000000 0.00000000 1 # 2: C
%endblock AtomicCoordinatesAndAtomicSpecies
NumberOfSpecies 1
%block ChemicalSpeciesLabel
 1 6 C
%endblock ChemicalSpeciesLabel
MD.TypeOfRun cg
MD.Steps 2
WriteHirshfeldPop t
WriteVoronoiPop t
PartialChargesAtEveryGeometry t
PartialChargesAtEverySCFStep t
WriteMullikenPop 1
MullikenInSCF t
Write.DMHS.History.NetCDF t
************************** End of input data file *****************************

reinit: -----------------------------------------------------------------------
reinit: System Name: 
reinit: -----------------------------------------------------------------------
reinit: System Label: siesta
reinit: -----------------------------------------------------------------------

initatom: Reading input for the pseudopotentials and atomic orbitals ----------
Species number:   1 Atomic number:    6 Label: C


---- Processing specs for species: C
Ground state valence configuration:   2s02  2p02
Reading pseudopotential information in PSML from:
  C.psml
PSML file version: 1.1
Using libxc ids:  101 130
GGA--PBE XC_GGA_X_PBE--XC_GGA_C_PBE pb
PSML uuid: 87620340-470b-11e8-5ed8-8e87ed7edbb4

---- Pseudopotential check for C 

Pseudopotential generated from a fully relativistic atomic calculation
There are spin-orbit semi-local pseudopotentials available

Pseudized shells:
2s( 2.00) rc: 1.20
2p( 2.00) rc: 1.26
Valence configuration for ps generation: 2s:2p: Total charge:   4.000000
For C, standard SIESTA heuristics set lmxkb to 3
 (one more than the basis l, including polarization orbitals).
Use PS.lmax or PS.KBprojectors blocks to override.
C pseudopotential only contains V_ls up to l=1 -- lmxkb reset.

<basis_specs>
===============================================================================
C                    Z=   6    Mass=  12.011        Charge= 0.17977+309
Lmxo=2 Lmxkb= 1    BasisType=split      Semic=F
L=0  Nsemic=0  Cnfigmx=2
          i=1  nzeta=2  polorb=0  (2s)
            splnorm:   0.15000    
               vcte:    40.000    
               rinn:  -0.90000    
               qcoe:    0.0000    
               qyuk:    0.0000    
               qwid:   0.10000E-01
                rcs:    0.0000      0.0000    
            lambdas:    1.0000      1.0000    
L=1  Nsemic=0  Cnfigmx=2
          i=1  nzeta=2  polorb=1  (2p)  (to be polarized perturbatively)
            splnorm:   0.15000    
               vcte:    40.000    
               rinn:  -0.90000    
               qcoe:    0.0000    
               qyuk:    0.0000    
               qwid:   0.10000E-01
                rcs:    0.0000      0.0000    
            lambdas:    1.0000      1.0000    
L=2  Nsemic=0  Cnfigmx=3
          i=1  nzeta=0  polorb=0  (3d)  (perturbative polarization orbital) (from 2p)
-------------------------------------------------------------------------------
L=0  Nkbl=1  erefs: 0.17977+309
L=1  Nkbl=1  erefs: 0.17977+309
===============================================================================
</basis_specs>

Using PAO.SplitTailNorm
atom: Called for C                     (Z =   6)
NOTE: C pseudopotential has channels up to l= 1
NOTE: PAOs with higher l will be generated with V_local
Maximum radius (at nrval) set to   50.00000 8518

read_vps: Pseudopotential generation method:
read_vps: ONCVPSP-3.Hamann's oncvpsp                        
Valence charge in pseudo generation:    4.00000

read_vps: Pseudopotential includes a core correction:
read_vps: Pseudo-core for xc-correction

xc_check: Exchange-correlation functional:
xc_check: Ceperley-Alder
xc_check: WARNING: Pseudopotential generated with GGA PBE functional
Got Vlocal (oncv-fit) from psml data
Choosing vlocal chloc cutoff:  3.131907
qtot up to nchloc:    4.00001913
atom: Maximum radius for chlocal:    3.13191
atom: Maximum radius for r*vlocal+2*Zval:    3.13191
Reading KB projs from C psml data
Using (derived) scalar-relativistic projectors in PSML file

PSML: Kleinman-Bylander projectors: 
   l= 0   rc=  1.219773   Ekb=  0.771050
   l= 0   rc=  1.219773   Ekb= 12.962866
   l= 1   rc=  1.278952   Ekb= -8.399849
   l= 1   rc=  1.278952   Ekb= -1.755000

PSML: Total number of  Kleinman-Bylander projectors:   8
atom: -------------------------------------------------------------------------

atom: SANKEY-TYPE ORBITALS:
atom: Selected multiple-zeta basis: split     

SPLIT: Orbitals with angular momentum L= 0

SPLIT: Basis orbitals for state 2s

SPLIT: PAO cut-off radius determined from an
SPLIT: energy shift=  0.010000 Ry
Split based on tail norm

   izeta = 1
                 lambda =    1.000000
                     rc =    4.511437
                 energy =   -0.989120
                kinetic =    0.946579
    potential(screened) =   -1.935699
       potential(ionic) =   -5.498314

   izeta = 2
                 rmatch =    3.075858
              splitnorm =    0.150000
                 energy =   -0.700820
                kinetic =    1.771753
    potential(screened) =   -2.472573
       potential(ionic) =   -6.339178

SPLIT: Orbitals with angular momentum L= 1

SPLIT: Basis orbitals for state 2p

SPLIT: PAO cut-off radius determined from an
SPLIT: energy shift=  0.010000 Ry
Split based on tail norm

   izeta = 1
                 lambda =    1.000000
                     rc =    5.490449
                 energy =   -0.369555
                kinetic =    2.447706
    potential(screened) =   -2.817262
       potential(ionic) =   -6.234860

   izeta = 2
                 rmatch =    3.744030
              splitnorm =    0.150000
                 energy =   -0.241893
                kinetic =    3.581585
    potential(screened) =   -3.823478
       potential(ionic) =   -7.591537
*Note: V_local used for l= 2

** Using vlocal for PAOs with L= 2

POLgen: Perturbative polarization orbital with L=  2

POLgen: Polarization orbital for state 2p
*Note: V_local used for lpol= 2

** Using vlocal for PAOs with L= 2
Split based on tail norm

   izeta = 1
                     rc =    5.490449
                 energy =    1.132178
                kinetic =    2.236568
    potential(screened) =   -1.104389
       potential(ionic) =   -3.924652
atom: Total number of Sankey-type orbitals: 13

atm_pop: Valence configuration (for local Pseudopot. screening):
 2s( 2.00)                                                            
 2p( 2.00)                                                            
 3d( 0.00)                                                            
Vna: chval, zval:    4.00000   4.00000

Vna:  Cut-off radius for the neutral-atom potential:   5.490449
comcore: Pseudo-core radius Rcore=  1.671741

atom: _________________________________________________________________________

prinput: Basis input 

PAO.BasisType split     

%block ChemicalSpeciesLabel
    1    6 C                       # Species index, atomic number, species label
%endblock ChemicalSpeciesLabel

%block PAO.Basis                 # Define Basis set
# WARNING: This information might be incomplete!
C                     2                    # Species label, number of l-shells
 n=2   0   2                         # n, l, Nzeta 
   4.511      3.076   
   1.000      1.000   
 n=2   1   2 P   1                   # n, l, Nzeta, Polarization, NzetaPol
   5.490      3.744   
   1.000      1.000   
%endblock PAO.Basis

prinput: ----------------------------------------------------------------------

Dumping basis to NetCDF file C.ion.nc
coor:   Atomic-coordinates input format  =     Cartesian coordinates
coor:                                          (in Angstroms)

siesta: Atomic coordinates (Bohr) and species
siesta:      0.00000   0.00000   0.00000  1        1
siesta:      2.60782   0.00000   0.00000  1        2

siesta: System type = slab      

initatomlists: Number of atoms, orbitals, and projectors:      2    26    16

siesta: ******************** Simulation parameters ****************************
siesta:
siesta: The following are some of the parameters of the simulation.
siesta: A complete list of the parameters used, including default values,
siesta: can be found in file out.fdf
siesta:
redata: Spin configuration                          = none
redata: Number of spin components                   = 1
redata: Time-Reversal Symmetry                      = T
redata: Spin spiral                                 = F
redata: Long output                                 =   F
redata: Number of Atomic Species                    =        1
redata: Charge density info will appear in .RHO file
redata: Write Mulliken Pop.                         = Atomic and Orbital charges
redata: Matel table size (NRTAB)                    =     1024
redata: Mesh Cutoff                                 =   300.0000 Ry
redata: Net charge of the system                    =     0.0000 |e|
redata: Min. number of SCF Iter                     =        0
redata: Max. number of SCF Iter                     =     1000
redata: SCF convergence failure will abort job
redata: SCF mix quantity                            = Hamiltonian
redata: Mix DM or H after convergence               =   F
redata: Recompute H after scf cycle                 =   F
redata: Mix DM in first SCF step                    =   T
redata: Write Pulay info on disk                    =   F
redata: New DM Occupancy tolerance                  = 0.000000000001
redata: No kicks to SCF
redata: DM Mixing Weight for Kicks                  =     0.5000
redata: Require Harris convergence for SCF          =   F
redata: Harris energy tolerance for SCF             =     0.000100 eV
redata: Require DM convergence for SCF              =   T
redata: DM tolerance for SCF                        =     0.000100
redata: Require EDM convergence for SCF             =   F
redata: EDM tolerance for SCF                       =     0.001000 eV
redata: Require H convergence for SCF               =   T
redata: Hamiltonian tolerance for SCF               =     0.001000 eV
redata: Require (free) Energy convergence for SCF   =   F
redata: (free) Energy tolerance for SCF             =     0.000100 eV
redata: Using Saved Data (generic)                  =   F
redata: Use continuation files for DM               =   T
redata: Neglect nonoverlap interactions             =   F
redata: Method of Calculation                       = Diagonalization
redata: Electronic Temperature                      =   299.9863 K
redata: Fix the spin of the system                  =   F
redata: Max. number of TDED Iter                    =        1
redata: Number of TDED substeps                     =        3
redata: Dynamics option                             = CG coord. optimization
redata: Variable cell                               =   F
redata: Use continuation files for CG               =   F
redata: Max atomic displ per move                   =     0.1058 Ang
redata: Maximum number of optimization moves        =        2
redata: Force tolerance                             =     0.0400 eV/Ang
mix.SCF: Pulay mixing                            = Pulay
mix.SCF:    Variant                              = stable
mix.SCF:    History steps                        = 2
mix.SCF:    Linear mixing weight                 =     0.250000
mix.SCF:    Mixing weight                        =     0.250000
mix.SCF:    SVD condition                        = 0.1000E-07
redata: Save all siesta data in one NC              =   F
redata: ***********************************************************************

%block SCF.Mixers
  Pulay
%endblock SCF.Mixers

%block SCF.Mixer.Pulay
  # Mixing method
  method pulay
  variant stable

  # Mixing options
  weight 0.2500
  weight.linear 0.2500
  history 2
%endblock SCF.Mixer.Pulay

DM_history_depth set to one: no extrapolation allowed by default for geometry relaxation
Size of DM history Fstack: 1
Total number of electrons:     8.000000
Total ionic charge:     8.000000

* ProcessorY, Blocksize:    1  27


* Orbital distribution balance (max,min):    26    26


siesta: k-grid: Number of k-points = 1
siesta: k-point is Gamma-only

diag: Algorithm                                     = D&C
diag: Parallel over k                               =   F
diag: Use parallel 2D distribution                  =   F
diag: Parallel block-size                           = 27
diag: Parallel distribution                         =     1 x     1
diag: Used triangular part                          = Lower
diag: Absolute tolerance                            =  0.100E-15
diag: Orthogonalization factor                      =  0.100E-05
diag: Memory factor                                 =  1.0000


ts: **************************************************************
ts: Save H and S matrices                           =    F
ts: Save DM and EDM matrices                        =    F
ts: Only save the overlap matrix S                  =    F
ts: **************************************************************

************************ Begin: TS CHECKS AND WARNINGS ************************
************************ End: TS CHECKS AND WARNINGS **************************


                     ====================================
                        Begin CG opt. move =      0
                     ====================================

outcell: Unit cell vectors (Ang):
        2.130000    1.229756    0.000000
        2.130000   -1.229756    0.000000
        0.000000    0.000000   14.200000

outcell: Cell vector modules (Ang)   :    2.459512    2.459512   14.200000
outcell: Cell angles (23,13,12) (deg):     90.0000     90.0000     60.0000
outcell: Cell volume (Ang**3)        :     74.3904
Gamma-point calculation with interaction between periodic images
Some features might not work optimally:
e.g. DM initialization from atomic data
<dSpData1D:S at geom step 0
  <sparsity:sparsity for geom step 0
    nrows_g=26 nrows=26 sparsity=1.0000 nnzs=676, refcount: 7>
  <dData1D:(new from dSpData1D) n=676, refcount: 1>
refcount: 1>
new_DM -- step:     1
Initializing Density Matrix...

Attempting to read DM from file... Succeeded...
DM from file:
<dSpData2D:IO-DM: siesta.DM
  <sparsity:IO-DM: siesta.DM
    nrows_g=26 nrows=26 sparsity=1.0000 nnzs=676, refcount: 1>
  <dData2D:(new from dSpData2D) n=676 m=1, refcount: 1>
refcount: 1>
DM to be used:
<dSpData2D:Re-structured SpM
  <sparsity:sparsity for geom step 0
    nrows_g=26 nrows=26 sparsity=1.0000 nnzs=676, refcount: 8>
  <dData2D:(new in restruct) n=676 m=1, refcount: 1>
refcount: 1>
No. of atoms with KB's overlaping orbs in proc 0. Max # of overlaps:       2     151

InitMesh: MESH = 24 x 24 x 150 = 86400
InitMesh: Mesh cutoff (required, used) =   300.000   308.395 Ry
New grid distribution [1]: sub = 2

Hirshfeld Atomic Populations:
Atom #     dQatom  Atom pop  Species
     1   -0.00001   4.00001  C
     2    0.00001   3.99999  C

Voronoi Atomic Populations:
Atom #     dQatom  Atom pop  Species
     1   -0.02921   4.02921  C
     2    0.02922   3.97078  C
 

stepf: Fermi-Dirac step function

Hirshfeld Atomic Populations:
Atom #     dQatom  Atom pop  Species
     1    0.00001   3.99999  C
     2   -0.00000   4.00000  C

Voronoi Atomic Populations:
Atom #     dQatom  Atom pop  Species
     1   -0.03193   4.03193  C
     2    0.03194   3.96806  C
 

siesta: Program's energy decomposition (eV):
siesta: Ebs     =       -99.350087
siesta: Eions   =       564.310478
siesta: Ena     =       150.800224
siesta: Ekin    =       253.183829
siesta: Enl     =       -26.237907
siesta: Eso     =         0.000000
siesta: Edftu   =         0.000000
siesta: DEna    =       -17.238965
siesta: DUscf   =         2.162240
siesta: DUext   =         0.000000
siesta: Ex      =      -103.341114
siesta: Ec      =       -13.904138
siesta: Exc     =      -117.245252
siesta: EbV     =         0.000000
siesta: eta*DQ  =         0.000000
siesta: Emadel  =         0.000000
siesta: Emeta   =         0.000000
siesta: Emolmec =         0.000000
siesta: Ekinion =         0.000000
siesta: Eharris =      -318.796052
siesta: Etot    =      -318.886308
siesta: FreeEng =      -318.886308

        iscf     Eharris(eV)        E_KS(eV)     FreeEng(eV)     dDmax    Ef(eV) dHmax(eV)
   scf:    1     -318.796052     -318.886308     -318.886308  0.101706 -2.097954  0.143702

Using DM_out for analysis:

mulliken: Atomic and Orbital Populations:

Species: C                   
Atom  Qatom  Qorb
               2s      2s      2py     2pz     2px     2py     2pz     2px     
               3Pdxy   3Pdyz   3Pdz2   3Pdxz   3Pdx2-y2
   1  4.001   0.809   0.187   0.702   0.798   0.802   0.237   0.202   0.149
              0.061   0.000   0.005   0.000   0.049
   2  3.999   0.807   0.187   0.704   0.798   0.802   0.235   0.202   0.148
              0.061   0.000   0.005   0.000   0.049

mulliken: Qtot =        8.000
timer: Routine,Calls,Time,% = IterSCF        1       0.329  27.05

Hirshfeld Atomic Populations:
Atom #     dQatom  Atom pop  Species
     1   -0.00002   4.00002  C
     2    0.00003   3.99997  C

Voronoi Atomic Populations:
Atom #     dQatom  Atom pop  Species
     1   -0.03149   4.03149  C
     2    0.03150   3.96850  C
 

        iscf     Eharris(eV)        E_KS(eV)     FreeEng(eV)     dDmax    Ef(eV) dHmax(eV)
   scf:    2     -318.888274     -318.887524     -318.887524  0.008553 -2.096560  0.040861

Using DM_out for analysis:

mulliken: Atomic and Orbital Populations:

Species: C                   
Atom  Qatom  Qorb
               2s      2s      2py     2pz     2px     2py     2pz     2px     
               3Pdxy   3Pdyz   3Pdz2   3Pdxz   3Pdx2-y2
   1  4.001   0.809   0.187   0.703   0.797   0.803   0.238   0.203   0.146
              0.059   0.000   0.005   0.000   0.051
   2  3.999   0.808   0.187   0.705   0.797   0.803   0.236   0.203   0.145
              0.059   0.000   0.005   0.000   0.051

mulliken: Qtot =        8.000

Hirshfeld Atomic Populations:
Atom #     dQatom  Atom pop  Species
     1   -0.00001   4.00001  C
     2    0.00001   3.99999  C

Voronoi Atomic Populations:
Atom #     dQatom  Atom pop  Species
     1   -0.03157   4.03157  C
     2    0.03158   3.96842  C
 

        iscf     Eharris(eV)        E_KS(eV)     FreeEng(eV)     dDmax    Ef(eV) dHmax(eV)
   scf:    3     -318.887705     -318.887625     -318.887625  0.001844 -2.096531  0.002305

Using DM_out for analysis:

mulliken: Atomic and Orbital Populations:

Species: C                   
Atom  Qatom  Qorb
               2s      2s      2py     2pz     2px     2py     2pz     2px     
               3Pdxy   3Pdyz   3Pdz2   3Pdxz   3Pdx2-y2
   1  4.001   0.809   0.187   0.703   0.797   0.802   0.238   0.202   0.146
              0.059   0.000   0.005   0.000   0.051
   2  3.999   0.808   0.187   0.705   0.797   0.803   0.236   0.202   0.146
              0.059   0.000   0.005   0.000   0.051

mulliken: Qtot =        8.000

Hirshfeld Atomic Populations:
Atom #     dQatom  Atom pop  Species
     1   -0.00000   4.00000  C
     2    0.00001   3.99999  C

Voronoi Atomic Populations:
Atom #     dQatom  Atom pop  Species
     1   -0.03157   4.03157  C
     2    0.03157   3.96843  C
 

        iscf     Eharris(eV)        E_KS(eV)     FreeEng(eV)     dDmax    Ef(eV) dHmax(eV)
   scf:    4     -318.887626     -318.887626     -318.887626  0.000064 -2.096424  0.001680

Using DM_out for analysis:

mulliken: Atomic and Orbital Populations:

Species: C                   
Atom  Qatom  Qorb
               2s      2s      2py     2pz     2px     2py     2pz     2px     
               3Pdxy   3Pdyz   3Pdz2   3Pdxz   3Pdx2-y2
   1  4.001   0.809   0.187   0.703   0.797   0.802   0.238   0.202   0.146
              0.059   0.000   0.005   0.000   0.051
   2  3.999   0.808   0.187   0.705   0.797   0.803   0.236   0.202   0.146
              0.059   0.000   0.005   0.000   0.051

mulliken: Qtot =        8.000

Hirshfeld Atomic Populations:
Atom #     dQatom  Atom pop  Species
     1   -0.00000   4.00000  C
     2    0.00001   3.99999  C

Voronoi Atomic Populations:
Atom #     dQatom  Atom pop  Species
     1   -0.03156   4.03156  C
     2    0.03157   3.96843  C
 

        iscf     Eharris(eV)        E_KS(eV)     FreeEng(eV)     dDmax    Ef(eV) dHmax(eV)
   scf:    5     -318.887626     -318.887626     -318.887626  0.000176 -2.096155  0.000172

Using DM_out for analysis:

mulliken: Atomic and Orbital Populations:

Species: C                   
Atom  Qatom  Qorb
               2s      2s      2py     2pz     2px     2py     2pz     2px     
               3Pdxy   3Pdyz   3Pdz2   3Pdxz   3Pdx2-y2
   1  4.001   0.809   0.187   0.703   0.797   0.803   0.238   0.202   0.146
              0.059   0.000   0.005   0.000   0.051
   2  3.999   0.808   0.187   0.705   0.797   0.803   0.236   0.202   0.146
              0.059   0.000   0.005   0.000   0.051

mulliken: Qtot =        8.000

Hirshfeld Atomic Populations:
Atom #     dQatom  Atom pop  Species
     1   -0.00000   4.00000  C
     2    0.00001   3.99999  C

Voronoi Atomic Populations:
Atom #     dQatom  Atom pop  Species
     1   -0.03157   4.03157  C
     2    0.03157   3.96843  C
 

        iscf     Eharris(eV)        E_KS(eV)     FreeEng(eV)     dDmax    Ef(eV) dHmax(eV)
   scf:    6     -318.887626     -318.887626     -318.887626  0.000006 -2.096168  0.000105

Using DM_out for analysis:

mulliken: Atomic and Orbital Populations:

Species: C                   
Atom  Qatom  Qorb
               2s      2s      2py     2pz     2px     2py     2pz     2px     
               3Pdxy   3Pdyz   3Pdz2   3Pdxz   3Pdx2-y2
   1  4.001   0.809   0.187   0.703   0.797   0.803   0.238   0.202   0.146
              0.059   0.000   0.005   0.000   0.051
   2  3.999   0.808   0.187   0.705   0.797   0.803   0.236   0.202   0.146
              0.059   0.000   0.005   0.000   0.051

mulliken: Qtot =        8.000

SCF Convergence by DM+H criterion
max |DM_out - DM_in|         :     0.0000057845
max |H_out - H_in|      (eV) :     0.0001052766
SCF cycle converged after 6 iterations

Using DM_out to compute the final energy and forces
No. of atoms with KB's overlaping orbs in proc 0. Max # of overlaps:       2     151

Hirshfeld Atomic Populations:
Atom #     dQatom  Atom pop  Species
     1   -0.00000   4.00000  C
     2    0.00001   3.99999  C

Voronoi Atomic Populations:
Atom #     dQatom  Atom pop  Species
     1   -0.03157   4.03157  C
     2    0.03157   3.96843  C
 

siesta: E_KS(eV) =             -318.8876

siesta: E_KS - E_eggbox =      -318.8876

siesta: Atomic forces (eV/Ang):
----------------------------------------
   Tot   -0.016146    0.000000   -0.000000
----------------------------------------
   Max    5.089505
   Res    2.933770    sqrt( Sum f_i^2 / 3N )
----------------------------------------
   Max    5.089505    constrained

Stress tensor Voigt[x,y,z,yz,xz,xy] (kbar):     -126.48      -56.97        0.04        0.00        0.00        0.00
(Free)E + p*V (eV/cell)     -316.0490
Target enthalpy (eV/cell)     -318.8876

mulliken: Atomic and Orbital Populations:

Species: C                   
Atom  Qatom  Qorb
               2s      2s      2py     2pz     2px     2py     2pz     2px     
               3Pdxy   3Pdyz   3Pdz2   3Pdxz   3Pdx2-y2
   1  4.001   0.809   0.187   0.703   0.797   0.803   0.238   0.202   0.146
              0.059   0.000   0.005   0.000   0.051
   2  3.999   0.808   0.187   0.705   0.797   0.803   0.236   0.202   0.146
              0.059   0.000   0.005   0.000   0.051

mulliken: Qtot =        8.000

                     ====================================
                        Begin CG opt. move =      1
                     ====================================

outcell: Unit cell vectors (Ang):
        2.130000    1.229756    0.000000
        2.130000   -1.229756    0.000000
        0.000000    0.000000   14.200000

outcell: Cell vector modules (Ang)   :    2.459512    2.459512   14.200000
outcell: Cell angles (23,13,12) (deg):     90.0000     90.0000     60.0000
outcell: Cell volume (Ang**3)        :     74.3904
Gamma-point calculation with interaction between periodic images
Some features might not work optimally:
e.g. DM initialization from atomic data
<dSpData1D:S at geom step 1
  <sparsity:sparsity for geom step 1
    nrows_g=26 nrows=26 sparsity=1.0000 nnzs=676, refcount: 7>
  <dData1D:(new from dSpData1D) n=676, refcount: 1>
refcount: 1>
new_DM -- step:     2
Re-using DM from previous geometries...
Number of DMs in history: 1
 DM extrapolation coefficients: 
1   1.00000
New DM after history re-use:
<dSpData2D:SpM extrapolated using coords
  <sparsity:sparsity for geom step 1
    nrows_g=26 nrows=26 sparsity=1.0000 nnzs=676, refcount: 9>
  <dData2D:(temp array for extrapolation) n=676 m=1, refcount: 1>
refcount: 1>
Note: For starting DM, Qtot, Tr[D*S] =          8.00000000          7.98364958
No. of atoms with KB's overlaping orbs in proc 0. Max # of overlaps:       2     151

InitMesh: MESH = 24 x 24 x 150 = 86400
InitMesh: Mesh cutoff (required, used) =   300.000   308.395 Ry
New grid distribution [1]: sub = 2

Hirshfeld Atomic Populations:
Atom #     dQatom  Atom pop  Species
     1    0.00000   4.00000  C
     2    0.00001   3.99999  C

Voronoi Atomic Populations:
Atom #     dQatom  Atom pop  Species
     1   -0.01860   4.01860  C
     2    0.01860   3.98140  C
 

Hirshfeld Atomic Populations:
Atom #     dQatom  Atom pop  Species
     1    0.00002   3.99998  C
     2   -0.00001   4.00001  C

Voronoi Atomic Populations:
Atom #     dQatom  Atom pop  Species
     1   -0.01303   4.01303  C
     2    0.01304   3.98696  C
 

        iscf     Eharris(eV)        E_KS(eV)     FreeEng(eV)     dDmax    Ef(eV) dHmax(eV)
   scf:    1     -317.515637     -318.287565     -318.287565  0.313521 -2.019476  0.433214

Using DM_out for analysis:

mulliken: Atomic and Orbital Populations:

Species: C                   
Atom  Qatom  Qorb
               2s      2s      2py     2pz     2px     2py     2pz     2px     
               3Pdxy   3Pdyz   3Pdz2   3Pdxz   3Pdx2-y2
   1  4.000   0.806   0.192   0.882   0.795   0.617   0.078   0.205   0.311
              0.040   0.000   0.004   0.000   0.070
   2  4.000   0.806   0.192   0.880   0.795   0.620   0.080   0.205   0.307
              0.040   0.000   0.004   0.000   0.070

mulliken: Qtot =        8.000

Hirshfeld Atomic Populations:
Atom #     dQatom  Atom pop  Species
     1   -0.00002   4.00002  C
     2    0.00002   3.99998  C

Voronoi Atomic Populations:
Atom #     dQatom  Atom pop  Species
     1   -0.01406   4.01406  C
     2    0.01407   3.98593  C
 

        iscf     Eharris(eV)        E_KS(eV)     FreeEng(eV)     dDmax    Ef(eV) dHmax(eV)
   scf:    2     -318.308433     -318.300353     -318.300353  0.034893 -2.039757  0.120238

Using DM_out for analysis:

mulliken: Atomic and Orbital Populations:

Species: C                   
Atom  Qatom  Qorb
               2s      2s      2py     2pz     2px     2py     2pz     2px     
               3Pdxy   3Pdyz   3Pdz2   3Pdxz   3Pdx2-y2
   1  4.000   0.807   0.193   0.885   0.792   0.634   0.070   0.208   0.297
              0.045   0.000   0.004   0.000   0.065
   2  4.000   0.807   0.193   0.884   0.792   0.637   0.071   0.208   0.294
              0.045   0.000   0.004   0.000   0.065

mulliken: Qtot =        8.000

Hirshfeld Atomic Populations:
Atom #     dQatom  Atom pop  Species
     1    0.00000   4.00000  C
     2    0.00000   4.00000  C

Voronoi Atomic Populations:
Atom #     dQatom  Atom pop  Species
     1   -0.01383   4.01383  C
     2    0.01383   3.98617  C
 

        iscf     Eharris(eV)        E_KS(eV)     FreeEng(eV)     dDmax    Ef(eV) dHmax(eV)
   scf:    3     -318.302156     -318.301363     -318.301363  0.007307 -2.032810  0.010562

Using DM_out for analysis:

mulliken: Atomic and Orbital Populations:

Species: C                   
Atom  Qatom  Qorb
               2s      2s      2py     2pz     2px     2py     2pz     2px     
               3Pdxy   3Pdyz   3Pdz2   3Pdxz   3Pdx2-y2
   1  4.000   0.807   0.193   0.885   0.793   0.630   0.071   0.207   0.300
              0.044   0.000   0.004   0.000   0.066
   2  4.000   0.807   0.193   0.883   0.793   0.633   0.073   0.207   0.296
              0.044   0.000   0.004   0.000   0.066

mulliken: Qtot =        8.000

Hirshfeld Atomic Populations:
Atom #     dQatom  Atom pop  Species
     1    0.00000   4.00000  C
     2    0.00000   4.00000  C

Voronoi Atomic Populations:
Atom #     dQatom  Atom pop  Species
     1   -0.01382   4.01382  C
     2    0.01383   3.98617  C
 

        iscf     Eharris(eV)        E_KS(eV)     FreeEng(eV)     dDmax    Ef(eV) dHmax(eV)
   scf:    4     -318.301367     -318.301365     -318.301365  0.000101 -2.031785  0.007577

Using DM_out for analysis:

mulliken: Atomic and Orbital Populations:

Species: C                   
Atom  Qatom  Qorb
               2s      2s      2py     2pz     2px     2py     2pz     2px     
               3Pdxy   3Pdyz   3Pdz2   3Pdxz   3Pdx2-y2
   1  4.000   0.807   0.192   0.885   0.793   0.631   0.071   0.207   0.300
              0.044   0.000   0.004   0.000   0.066
   2  4.000   0.807   0.193   0.883   0.793   0.634   0.073   0.207   0.296
              0.044   0.000   0.004   0.000   0.066

mulliken: Qtot =        8.000

Hirshfeld Atomic Populations:
Atom #     dQatom  Atom pop  Species
     1    0.00001   3.99999  C
     2   -0.00000   4.00000  C

Voronoi Atomic Populations:
Atom #     dQatom  Atom pop  Species
     1   -0.01382   4.01382  C
     2    0.01383   3.98617  C
 

        iscf     Eharris(eV)        E_KS(eV)     FreeEng(eV)     dDmax    Ef(eV) dHmax(eV)
   scf:    5     -318.301369     -318.301367     -318.301367  0.000257 -2.029317  0.000677

Using DM_out for analysis:

mulliken: Atomic and Orbital Populations:

Species: C                   
Atom  Qatom  Qorb
               2s      2s      2py     2pz     2px     2py     2pz     2px     
               3Pdxy   3Pdyz   3Pdz2   3Pdxz   3Pdx2-y2
   1  4.000   0.807   0.192   0.885   0.793   0.631   0.071   0.207   0.299
              0.044   0.000   0.004   0.000   0.066
   2  4.000   0.807   0.193   0.883   0.793   0.634   0.073   0.207   0.296
              0.044   0.000   0.004   0.000   0.066

mulliken: Qtot =        8.000

Hirshfeld Atomic Populations:
Atom #     dQatom  Atom pop  Species
     1    0.00001   3.99999  C
     2   -0.00000   4.00000  C

Voronoi Atomic Populations:
Atom #     dQatom  Atom pop  Species
     1   -0.01383   4.01383  C
     2    0.01383   3.98617  C
 

        iscf     Eharris(eV)        E_KS(eV)     FreeEng(eV)     dDmax    Ef(eV) dHmax(eV)
   scf:    6     -318.301367     -318.301367     -318.301367  0.000011 -2.029339  0.000466

Using DM_out for analysis:

mulliken: Atomic and Orbital Populations:

Species: C                   
Atom  Qatom  Qorb
               2s      2s      2py     2pz     2px     2py     2pz     2px     
               3Pdxy   3Pdyz   3Pdz2   3Pdxz   3Pdx2-y2
   1  4.000   0.807   0.192   0.885   0.793   0.631   0.071   0.207   0.299
              0.044   0.000   0.004   0.000   0.067
   2  4.000   0.807   0.193   0.883   0.793   0.634   0.073   0.207   0.296
              0.044   0.000   0.004   0.000   0.066

mulliken: Qtot =        8.000

SCF Convergence by DM+H criterion
max |DM_out - DM_in|         :     0.0000109376
max |H_out - H_in|      (eV) :     0.0004662403
SCF cycle converged after 6 iterations

Using DM_out to compute the final energy and forces
No. of atoms with KB's overlaping orbs in proc 0. Max # of overlaps:       2     151

Hirshfeld Atomic Populations:
Atom #     dQatom  Atom pop  Species
     1    0.00001   3.99999  C
     2   -0.00000   4.00000  C

Voronoi Atomic Populations:
Atom #     dQatom  Atom pop  Species
     1   -0.01383   4.01383  C
     2    0.01383   3.98617  C
 

siesta: E_KS(eV) =             -318.3014

siesta: Atomic forces (eV/Ang):
----------------------------------------
   Tot    0.019703   -0.000000    0.000000
----------------------------------------
   Max   12.128255
   Res    6.996566    sqrt( Sum f_i^2 / 3N )
----------------------------------------
   Max   12.128255    constrained

Stress tensor Voigt[x,y,z,yz,xz,xy] (kbar):      -13.36     -210.79        0.04       -0.00        0.00       -0.00
(Free)E + p*V (eV/cell)     -314.8328
Target enthalpy (eV/cell)     -318.3014

mulliken: Atomic and Orbital Populations:

Species: C                   
Atom  Qatom  Qorb
               2s      2s      2py     2pz     2px     2py     2pz     2px     
               3Pdxy   3Pdyz   3Pdz2   3Pdxz   3Pdx2-y2
   1  4.000   0.807   0.192   0.885   0.793   0.631   0.071   0.207   0.299
              0.044   0.000   0.004   0.000   0.067
   2  4.000   0.807   0.193   0.883   0.793   0.634   0.073   0.207   0.296
              0.044   0.000   0.004   0.000   0.066

mulliken: Qtot =        8.000

                     ====================================
                        Begin CG opt. move =      2
                     ====================================

outcell: Unit cell vectors (Ang):
        2.130000    1.229756    0.000000
        2.130000   -1.229756    0.000000
        0.000000    0.000000   14.200000

outcell: Cell vector modules (Ang)   :    2.459512    2.459512   14.200000
outcell: Cell angles (23,13,12) (deg):     90.0000     90.0000     60.0000
outcell: Cell volume (Ang**3)        :     74.3904
Gamma-point calculation with interaction between periodic images
Some features might not work optimally:
e.g. DM initialization from atomic data
<dSpData1D:S at geom step 2
  <sparsity:sparsity for geom step 2
    nrows_g=26 nrows=26 sparsity=1.0000 nnzs=676, refcount: 7>
  <dData1D:(new from dSpData1D) n=676, refcount: 1>
refcount: 1>
new_DM -- step:     3
Re-using DM from previous geometries...
Number of DMs in history: 1
 DM extrapolation coefficients: 
1   1.00000
New DM after history re-use:
<dSpData2D:SpM extrapolated using coords
  <sparsity:sparsity for geom step 2
    nrows_g=26 nrows=26 sparsity=1.0000 nnzs=676, refcount: 9>
  <dData2D:(temp array for extrapolation) n=676 m=1, refcount: 1>
refcount: 1>
Note: For starting DM, Qtot, Tr[D*S] =          8.00000000          8.03190316
No. of atoms with KB's overlaping orbs in proc 0. Max # of overlaps:       2     151

InitMesh: MESH = 24 x 24 x 150 = 86400
InitMesh: Mesh cutoff (required, used) =   300.000   308.395 Ry
New grid distribution [1]: sub = 2

Hirshfeld Atomic Populations:
Atom #     dQatom  Atom pop  Species
     1    0.00002   3.99998  C
     2   -0.00002   4.00002  C

Voronoi Atomic Populations:
Atom #     dQatom  Atom pop  Species
     1    0.00250   3.99750  C
     2   -0.00250   4.00250  C
 

Hirshfeld Atomic Populations:
Atom #     dQatom  Atom pop  Species
     1   -0.00003   4.00003  C
     2    0.00003   3.99997  C

Voronoi Atomic Populations:
Atom #     dQatom  Atom pop  Species
     1   -0.00529   4.00529  C
     2    0.00529   3.99471  C
 

        iscf     Eharris(eV)        E_KS(eV)     FreeEng(eV)     dDmax    Ef(eV) dHmax(eV)
   scf:    1     -319.213288     -318.980158     -318.980158  0.232260 -2.047423  0.316006

Using DM_out for analysis:

mulliken: Atomic and Orbital Populations:

Species: C                   
Atom  Qatom  Qorb
               2s      2s      2py     2pz     2px     2py     2pz     2px     
               3Pdxy   3Pdyz   3Pdz2   3Pdxz   3Pdx2-y2
   1  4.000   0.810   0.185   0.754   0.801   0.746   0.188   0.199   0.201
              0.058   0.000   0.005   0.000   0.052
   2  4.000   0.810   0.185   0.756   0.801   0.745   0.187   0.199   0.203
              0.058   0.000   0.005   0.000   0.052

mulliken: Qtot =        8.000

Hirshfeld Atomic Populations:
Atom #     dQatom  Atom pop  Species
     1    0.00006   3.99994  C
     2   -0.00006   4.00006  C

Voronoi Atomic Populations:
Atom #     dQatom  Atom pop  Species
     1   -0.00393   4.00393  C
     2    0.00393   3.99607  C
 

        iscf     Eharris(eV)        E_KS(eV)     FreeEng(eV)     dDmax    Ef(eV) dHmax(eV)
   scf:    2     -318.990294     -318.986418     -318.986418  0.019474 -2.133862  0.089413

Using DM_out for analysis:

mulliken: Atomic and Orbital Populations:

Species: C                   
Atom  Qatom  Qorb
               2s      2s      2py     2pz     2px     2py     2pz     2px     
               3Pdxy   3Pdyz   3Pdz2   3Pdxz   3Pdx2-y2
   1  4.000   0.808   0.186   0.756   0.797   0.747   0.190   0.203   0.197
              0.054   0.000   0.005  -0.000   0.056
   2  4.000   0.808   0.186   0.758   0.797   0.746   0.188   0.203   0.198
              0.054   0.000   0.005  -0.000   0.056

mulliken: Qtot =        8.000

Hirshfeld Atomic Populations:
Atom #     dQatom  Atom pop  Species
     1    0.00002   3.99998  C
     2   -0.00001   4.00001  C

Voronoi Atomic Populations:
Atom #     dQatom  Atom pop  Species
     1   -0.00427   4.00427  C
     2    0.00427   3.99573  C
 

        iscf     Eharris(eV)        E_KS(eV)     FreeEng(eV)     dDmax    Ef(eV) dHmax(eV)
   scf:    3     -318.987323     -318.986928     -318.986928  0.004257 -2.111406  0.011322

Using DM_out for analysis:

mulliken: Atomic and Orbital Populations:

Species: C                   
Atom  Qatom  Qorb
               2s      2s      2py     2pz     2px     2py     2pz     2px     
               3Pdxy   3Pdyz   3Pdz2   3Pdxz   3Pdx2-y2
   1  4.000   0.809   0.186   0.756   0.798   0.747   0.190   0.202   0.198
              0.055   0.000   0.005   0.000   0.055
   2  4.000   0.809   0.186   0.757   0.798   0.746   0.188   0.202   0.199
              0.054   0.000   0.005   0.000   0.055

mulliken: Qtot =        8.000

Hirshfeld Atomic Populations:
Atom #     dQatom  Atom pop  Species
     1    0.00001   3.99999  C
     2   -0.00000   4.00000  C

Voronoi Atomic Populations:
Atom #     dQatom  Atom pop  Species
     1   -0.00428   4.00428  C
     2    0.00429   3.99571  C
 

        iscf     Eharris(eV)        E_KS(eV)     FreeEng(eV)     dDmax    Ef(eV) dHmax(eV)
   scf:    4     -318.986930     -318.986929     -318.986929  0.000104 -2.109833  0.007946

Using DM_out for analysis:

mulliken: Atomic and Orbital Populations:

Species: C                   
Atom  Qatom  Qorb
               2s      2s      2py     2pz     2px     2py     2pz     2px     
               3Pdxy   3Pdyz   3Pdz2   3Pdxz   3Pdx2-y2
   1  4.000   0.809   0.186   0.756   0.798   0.747   0.190   0.202   0.198
              0.055   0.000   0.005   0.000   0.055
   2  4.000   0.809   0.186   0.757   0.798   0.746   0.188   0.202   0.199
              0.055   0.000   0.005   0.000   0.055

mulliken: Qtot =        8.000

Hirshfeld Atomic Populations:
Atom #     dQatom  Atom pop  Species
     1   -0.00000   4.00000  C
     2    0.00001   3.99999  C

Voronoi Atomic Populations:
Atom #     dQatom  Atom pop  Species
     1   -0.00429   4.00429  C
     2    0.00429   3.99571  C
 

        iscf     Eharris(eV)        E_KS(eV)     FreeEng(eV)     dDmax    Ef(eV) dHmax(eV)
   scf:    5     -318.986932     -318.986930     -318.986930  0.000216 -2.106610  0.001371

Using DM_out for analysis:

mulliken: Atomic and Orbital Populations:

Species: C                   
Atom  Qatom  Qorb
               2s      2s      2py     2pz     2px     2py     2pz     2px     
               3Pdxy   3Pdyz   3Pdz2   3Pdxz   3Pdx2-y2
   1  4.000   0.809   0.186   0.756   0.798   0.747   0.190   0.202   0.197
              0.055   0.000   0.005   0.000   0.055
   2  4.000   0.809   0.186   0.757   0.798   0.746   0.188   0.202   0.199
              0.055   0.000   0.005   0.000   0.055

mulliken: Qtot =        8.000

Hirshfeld Atomic Populations:
Atom #     dQatom  Atom pop  Species
     1    0.00000   4.00000  C
     2    0.00000   4.00000  C

Voronoi Atomic Populations:
Atom #     dQatom  Atom pop  Species
     1   -0.00428   4.00428  C
     2    0.00429   3.99571  C
 

        iscf     Eharris(eV)        E_KS(eV)     FreeEng(eV)     dDmax    Ef(eV) dHmax(eV)
   scf:    6     -318.986931     -318.986930     -318.986930  0.000026 -2.106599  0.000968

Using DM_out for analysis:

mulliken: Atomic and Orbital Populations:

Species: C                   
Atom  Qatom  Qorb
               2s      2s      2py     2pz     2px     2py     2pz     2px     
               3Pdxy   3Pdyz   3Pdz2   3Pdxz   3Pdx2-y2
   1  4.000   0.809   0.186   0.756   0.798   0.747   0.190   0.202   0.197
              0.055   0.000   0.005   0.000   0.055
   2  4.000   0.809   0.186   0.757   0.798   0.746   0.188   0.202   0.199
              0.055   0.000   0.005   0.000   0.055

mulliken: Qtot =        8.000

SCF Convergence by DM+H criterion
max |DM_out - DM_in|         :     0.0000261512
max |H_out - H_in|      (eV) :     0.0009679870
SCF cycle converged after 6 iterations

Using DM_out to compute the final energy and forces
No. of atoms with KB's overlaping orbs in proc 0. Max # of overlaps:       2     151

Hirshfeld Atomic Populations:
Atom #     dQatom  Atom pop  Species
     1    0.00000   4.00000  C
     2    0.00000   4.00000  C

Voronoi Atomic Populations:
Atom #     dQatom  Atom pop  Species
     1   -0.00428   4.00428  C
     2    0.00429   3.99571  C
 

siesta: E_KS(eV) =             -318.9869

siesta: Atomic forces (eV/Ang):
----------------------------------------
   Tot    0.010504   -0.000000    0.000000
----------------------------------------
   Max    0.519461
   Res    0.296894    sqrt( Sum f_i^2 / 3N )
----------------------------------------
   Max    0.519461    constrained

Stress tensor Voigt[x,y,z,yz,xz,xy] (kbar):      -86.02      -92.59        0.03        0.00        0.00        0.00
(Free)E + p*V (eV/cell)     -316.2231
Target enthalpy (eV/cell)     -318.9869

mulliken: Atomic and Orbital Populations:

Species: C                   
Atom  Qatom  Qorb
               2s      2s      2py     2pz     2px     2py     2pz     2px     
               3Pdxy   3Pdyz   3Pdz2   3Pdxz   3Pdx2-y2
   1  4.000   0.809   0.186   0.756   0.798   0.747   0.190   0.202   0.197
              0.055   0.000   0.005   0.000   0.055
   2  4.000   0.809   0.186   0.757   0.798   0.746   0.188   0.202   0.199
              0.055   0.000   0.005   0.000   0.055

mulliken: Qtot =        8.000

cgvc: Finished line minimization    1.  Mean atomic displacement =    0.0418

outcoor: Final (unrelaxed) atomic coordinates (Ang):        
   -0.02214457    0.00000000   -0.00000000   1       1  C
    1.40207432    0.00000000   -0.00000000   1       2  C

siesta: Program's energy decomposition (eV):
siesta: Ebs     =       -99.367836
siesta: Eions   =       564.310478
siesta: Ena     =       150.787390
siesta: Ekin    =       253.050396
siesta: Enl     =       -26.231345
siesta: Eso     =         0.000000
siesta: Edftu   =         0.000000
siesta: DEna    =       -17.210485
siesta: DUscf   =         2.158960
siesta: DUext   =         0.000000
siesta: Ex      =      -103.327807
siesta: Ec      =       -13.903562
siesta: Exc     =      -117.231369
siesta: EbV     =         0.000000
siesta: eta*DQ  =         0.000000
siesta: Emadel  =         0.000000
siesta: Emeta   =         0.000000
siesta: Emolmec =         0.000000
siesta: Ekinion =         0.000000
siesta: Eharris =      -318.986931
siesta: Etot    =      -318.986930
siesta: FreeEng =      -318.986930

siesta: Final energy (eV):
siesta:  Band Struct. =     -99.367836
siesta:       Kinetic =     253.050396
siesta:       Hartree =    1023.813533
siesta:         Edftu =       0.000000
siesta:       Eso     =       0.000000
siesta:    Ext. field =       0.000000
siesta:         Exch. =    -103.327807
siesta:         Corr. =     -13.903562
siesta:     Bulk bias =       0.000000
siesta:   Exch.-corr. =    -117.231369
siesta:  Ion-electron =   -2270.512857
siesta:       Ion-ion =     791.893367
siesta:       Ekinion =       0.000000
siesta: D3 dispersion =       0.000000
siesta:         Total =    -318.986930
siesta:         Fermi =      -2.106599

siesta: Atomic forces (eV/Ang):
siesta:      1    0.519461   -0.000000    0.000000
siesta:      2   -0.508957   -0.000000    0.000000
siesta: ----------------------------------------
siesta:    Tot    0.010504   -0.000000    0.000000

siesta: Stress tensor (static) (eV/Ang**3):
siesta:    -0.053689   -0.000000   -0.000000
siesta:     0.000000   -0.057788   -0.000000
siesta:     0.000000    0.000000    0.000020

siesta: Cell volume =         74.390404 Ang**3

siesta: Pressure (static):
siesta:                Solid            Molecule  Units
siesta:           0.00040464          0.00044038  Ry/Bohr**3
siesta:           0.03715242          0.04043397  eV/Ang**3
siesta:          59.52474246         64.78236030  kBar
(Free)E+ p_basis*V_orbitals  =        -318.205235
(Free)Eharris+ p_basis*V_orbitals  =        -318.205235

siesta: Electric dipole (a.u.)  =    0.000000    0.000000   -0.000000
siesta: Electric dipole (Debye) =    0.000000    0.000000   -0.000000

cite: Please see "siesta.bib" for an exhaustive BiBTeX file.
cite: Please clearly indicate Siesta version in published work: NO_VERSION_LABEL_AVAILABLE
cite: This calculation has made use of the following articles
cite: which are encouraged to be cited in a published work.
        Primary SIESTA paper
          DOI: www.doi.org/10.1088/0953-8984/14/11/302


timer: Elapsed wall time (sec) =      12.218
timer: CPU execution times (sec):

Routine            Calls   Time/call    Tot.time        %
siesta                 1      12.207      12.207   100.00
Setup                  1       0.094       0.094     0.77
bands                  1       0.000       0.000     0.00
KSV_init               1       0.000       0.000     0.00
IterGeom               3       4.037      12.112    99.22
geom_init              3       0.616       1.847    15.13
state_init             3       0.035       0.104     0.85
hsparse                3       0.001       0.002     0.02
overlap                3       0.033       0.100     0.82
Setup_H0               3       0.253       0.759     6.22
naefs                  6       0.000       0.000     0.00
MolMec                 6       0.000       0.000     0.00
kinefsm                6       0.018       0.107     0.88
nlefsm                 6       0.018       0.108     0.89
DHSCF_Init             3       0.192       0.576     4.72
DHSCF1                 3       0.021       0.064     0.52
INITMESH               3       0.000       0.000     0.00
DHSCF2                 3       0.171       0.513     4.20
REMESH                 3       0.008       0.024     0.20
REORD                141       0.000       0.012     0.10
PHION                  3       0.138       0.415     3.40
COMM_BSC             153       0.000       0.011     0.09
POISON                27       0.010       0.280     2.29
fft                   54       0.005       0.248     2.03
setup_H               21       0.324       6.808    55.77
DHSCF                 24       0.466      11.191    91.68
DHSCF3                24       0.324       7.777    63.71
rhoofd                24       0.084       2.026    16.60
partial-charges       24       0.164       3.940    32.28
XC                    24       0.005       0.127     1.04
GXC-CellXC            24       0.005       0.120     0.98
gridxc@cellXC         24       0.005       0.119     0.98
vmat                  24       0.058       1.385    11.35
IterSCF               18       0.324       5.835    47.80
compute_dm            18       0.000       0.006     0.05
diagon                18       0.000       0.004     0.03
r-eigvec              18       0.000       0.003     0.03
r-buildHS             18       0.000       0.000     0.00
rdiag                 18       0.000       0.003     0.03
rdiag1                18       0.000       0.000     0.00
rdiag2                18       0.000       0.000     0.00
rdiag3                18       0.000       0.002     0.02
rdiag4                18       0.000       0.000     0.00
r-buildD              18       0.000       0.001     0.00
MIXER                 15       0.000       0.000     0.00
PostSCF                3       1.476       4.428    36.28
DHSCF4                 3       1.138       3.414    27.97
dfscf                  3       1.122       3.366    27.58
overfsm                3       0.003       0.010     0.08
writeHSX               3       0.000       0.000     0.00
state_analysis         3       0.000       0.001     0.01
siesta_move            3       0.000       0.000     0.00
Analysis               1       0.001       0.001     0.00
optical                1       0.000       0.000     0.00
  

>> End of run:  23-APR-2024  16:26:43
Job completed
