<pdos>
<nspin>1</nspin>
<norbitals>72</norbitals>
<fermi_energy units="eV"> -0.366340333E+01</fermi_energy>
<energy_values units="eV">
 -0.700000000E+02
 -0.699749917E+02
 -0.699499833E+02
 -0.699249750E+02
 -0.698999667E+02
 -0.698749583E+02
 -0.698499500E+02
 -0.698249416E+02
 -0.697999333E+02
 -0.697749250E+02
 -0.697499166E+02
 -0.697249083E+02
 -0.696999000E+02
 -0.696748916E+02
 -0.696498833E+02
 -0.696248750E+02
 -0.695998666E+02
 -0.695748583E+02
 -0.695498499E+02
 -0.695248416E+02
 -0.694998333E+02
 -0.694748249E+02
 -0.694498166E+02
 -0.694248083E+02
 -0.693997999E+02
 -0.693747916E+02
 -0.693497833E+02
 -0.693247749E+02
 -0.692997666E+02
 -0.692747583E+02
 -0.692497499E+02
 -0.692247416E+02
 -0.691997332E+02
 -0.691747249E+02
 -0.691497166E+02
 -0.691247082E+02
 -0.690996999E+02
 -0.690746916E+02
 -0.690496832E+02
 -0.690246749E+02
 -0.689996666E+02
 -0.689746582E+02
 -0.689496499E+02
 -0.689246415E+02
 -0.688996332E+02
 -0.688746249E+02
 -0.688496165E+02
 -0.688246082E+02
 -0.687995999E+02
 -0.687745915E+02
 -0.687495832E+02
 -0.687245749E+02
 -0.686995665E+02
 -0.686745582E+02
 -0.686495498E+02
 -0.686245415E+02
 -0.685995332E+02
 -0.685745248E+02
 -0.685495165E+02
 -0.685245082E+02
 -0.684994998E+02
 -0.684744915E+02
 -0.684494832E+02
 -0.684244748E+02
 -0.683994665E+02
 -0.683744582E+02
 -0.683494498E+02
 -0.683244415E+02
 -0.682994331E+02
 -0.682744248E+02
 -0.682494165E+02
 -0.682244081E+02
 -0.681993998E+02
 -0.681743915E+02
 -0.681493831E+02
 -0.681243748E+02
 -0.680993665E+02
 -0.680743581E+02
 -0.680493498E+02
 -0.680243414E+02
 -0.679993331E+02
 -0.679743248E+02
 -0.679493164E+02
 -0.679243081E+02
 -0.678992998E+02
 -0.678742914E+02
 -0.678492831E+02
 -0.678242748E+02
 -0.677992664E+02
 -0.677742581E+02
 -0.677492497E+02
 -0.677242414E+02
 -0.676992331E+02
 -0.676742247E+02
 -0.676492164E+02
 -0.676242081E+02
 -0.675991997E+02
 -0.675741914E+02
 -0.675491831E+02
 -0.675241747E+02
 -0.674991664E+02
 -0.674741581E+02
 -0.674491497E+02
 -0.674241414E+02
 -0.673991330E+02
 -0.673741247E+02
 -0.673491164E+02
 -0.673241080E+02
 -0.672990997E+02
 -0.672740914E+02
 -0.672490830E+02
 -0.672240747E+02
 -0.671990664E+02
 -0.671740580E+02
 -0.671490497E+02
 -0.671240413E+02
 -0.670990330E+02
 -0.670740247E+02
 -0.670490163E+02
 -0.670240080E+02
 -0.669989997E+02
 -0.669739913E+02
 -0.669489830E+02
 -0.669239747E+02
 -0.668989663E+02
 -0.668739580E+02
 -0.668489496E+02
 -0.668239413E+02
 -0.667989330E+02
 -0.667739246E+02
 -0.667489163E+02
 -0.667239080E+02
 -0.666988996E+02
 -0.666738913E+02
 -0.666488830E+02
 -0.666238746E+02
 -0.665988663E+02
 -0.665738580E+02
 -0.665488496E+02
 -0.665238413E+02
 -0.664988329E+02
 -0.664738246E+02
 -0.664488163E+02
 -0.664238079E+02
 -0.663987996E+02
 -0.663737913E+02
 -0.663487829E+02
 -0.663237746E+02
 -0.662987663E+02
 -0.662737579E+02
 -0.662487496E+02
 -0.662237412E+02
 -0.661987329E+02
 -0.661737246E+02
 -0.661487162E+02
 -0.661237079E+02
 -0.660986996E+02
 -0.660736912E+02
 -0.660486829E+02
 -0.660236746E+02
 -0.659986662E+02
 -0.659736579E+02
 -0.659486495E+02
 -0.659236412E+02
 -0.658986329E+02
 -0.658736245E+02
 -0.658486162E+02
 -0.658236079E+02
 -0.657985995E+02
 -0.657735912E+02
 -0.657485829E+02
 -0.657235745E+02
 -0.656985662E+02
 -0.656735579E+02
 -0.656485495E+02
 -0.656235412E+02
 -0.655985328E+02
 -0.655735245E+02
 -0.655485162E+02
 -0.655235078E+02
 -0.654984995E+02
 -0.654734912E+02
 -0.654484828E+02
 -0.654234745E+02
 -0.653984662E+02
 -0.653734578E+02
 -0.653484495E+02
 -0.653234411E+02
 -0.652984328E+02
 -0.652734245E+02
 -0.652484161E+02
 -0.652234078E+02
 -0.651983995E+02
 -0.651733911E+02
 -0.651483828E+02
 -0.651233745E+02
 -0.650983661E+02
 -0.650733578E+02
 -0.650483494E+02
 -0.650233411E+02
 -0.649983328E+02
 -0.649733244E+02
 -0.649483161E+02
 -0.649233078E+02
 -0.648982994E+02
 -0.648732911E+02
 -0.648482828E+02
 -0.648232744E+02
 -0.647982661E+02
 -0.647732578E+02
 -0.647482494E+02
 -0.647232411E+02
 -0.646982327E+02
 -0.646732244E+02
 -0.646482161E+02
 -0.646232077E+02
 -0.645981994E+02
 -0.645731911E+02
 -0.645481827E+02
 -0.645231744E+02
 -0.644981661E+02
 -0.644731577E+02
 -0.644481494E+02
 -0.644231410E+02
 -0.643981327E+02
 -0.643731244E+02
 -0.643481160E+02
 -0.643231077E+02
 -0.642980994E+02
 -0.642730910E+02
 -0.642480827E+02
 -0.642230744E+02
 -0.641980660E+02
 -0.641730577E+02
 -0.641480493E+02
 -0.641230410E+02
 -0.640980327E+02
 -0.640730243E+02
 -0.640480160E+02
 -0.640230077E+02
 -0.639979993E+02
 -0.639729910E+02
 -0.639479827E+02
 -0.639229743E+02
 -0.638979660E+02
 -0.638729577E+02
 -0.638479493E+02
 -0.638229410E+02
 -0.637979326E+02
 -0.637729243E+02
 -0.637479160E+02
 -0.637229076E+02
 -0.636978993E+02
 -0.636728910E+02
 -0.636478826E+02
 -0.636228743E+02
 -0.635978660E+02
 -0.635728576E+02
 -0.635478493E+02
 -0.635228409E+02
 -0.634978326E+02
 -0.634728243E+02
 -0.634478159E+02
 -0.634228076E+02
 -0.633977993E+02
 -0.633727909E+02
 -0.633477826E+02
 -0.633227743E+02
 -0.632977659E+02
 -0.632727576E+02
 -0.632477492E+02
 -0.632227409E+02
 -0.631977326E+02
 -0.631727242E+02
 -0.631477159E+02
 -0.631227076E+02
 -0.630976992E+02
 -0.630726909E+02
 -0.630476826E+02
 -0.630226742E+02
 -0.629976659E+02
 -0.629726576E+02
 -0.629476492E+02
 -0.629226409E+02
 -0.628976325E+02
 -0.628726242E+02
 -0.628476159E+02
 -0.628226075E+02
 -0.627975992E+02
 -0.627725909E+02
 -0.627475825E+02
 -0.627225742E+02
 -0.626975659E+02
 -0.626725575E+02
 -0.626475492E+02
 -0.626225408E+02
 -0.625975325E+02
 -0.625725242E+02
 -0.625475158E+02
 -0.625225075E+02
 -0.624974992E+02
 -0.624724908E+02
 -0.624474825E+02
 -0.624224742E+02
 -0.623974658E+02
 -0.623724575E+02
 -0.623474491E+02
 -0.623224408E+02
 -0.622974325E+02
 -0.622724241E+02
 -0.622474158E+02
 -0.622224075E+02
 -0.621973991E+02
 -0.621723908E+02
 -0.621473825E+02
 -0.621223741E+02
 -0.620973658E+02
 -0.620723575E+02
 -0.620473491E+02
 -0.620223408E+02
 -0.619973324E+02
 -0.619723241E+02
 -0.619473158E+02
 -0.619223074E+02
 -0.618972991E+02
 -0.618722908E+02
 -0.618472824E+02
 -0.618222741E+02
 -0.617972658E+02
 -0.617722574E+02
 -0.617472491E+02
 -0.617222407E+02
 -0.616972324E+02
 -0.616722241E+02
 -0.616472157E+02
 -0.616222074E+02
 -0.615971991E+02
 -0.615721907E+02
 -0.615471824E+02
 -0.615221741E+02
 -0.614971657E+02
 -0.614721574E+02
 -0.614471490E+02
 -0.614221407E+02
 -0.613971324E+02
 -0.613721240E+02
 -0.613471157E+02
 -0.613221074E+02
 -0.612970990E+02
 -0.612720907E+02
 -0.612470824E+02
 -0.612220740E+02
 -0.611970657E+02
 -0.611720574E+02
 -0.611470490E+02
 -0.611220407E+02
 -0.610970323E+02
 -0.610720240E+02
 -0.610470157E+02
 -0.610220073E+02
 -0.609969990E+02
 -0.609719907E+02
 -0.609469823E+02
 -0.609219740E+02
 -0.608969657E+02
 -0.608719573E+02
 -0.608469490E+02
 -0.608219406E+02
 -0.607969323E+02
 -0.607719240E+02
 -0.607469156E+02
 -0.607219073E+02
 -0.606968990E+02
 -0.606718906E+02
 -0.606468823E+02
 -0.606218740E+02
 -0.605968656E+02
 -0.605718573E+02
 -0.605468489E+02
 -0.605218406E+02
 -0.604968323E+02
 -0.604718239E+02
 -0.604468156E+02
 -0.604218073E+02
 -0.603967989E+02
 -0.603717906E+02
 -0.603467823E+02
 -0.603217739E+02
 -0.602967656E+02
 -0.602717573E+02
 -0.602467489E+02
 -0.602217406E+02
 -0.601967322E+02
 -0.601717239E+02
 -0.601467156E+02
 -0.601217072E+02
 -0.600966989E+02
 -0.600716906E+02
 -0.600466822E+02
 -0.600216739E+02
 -0.599966656E+02
 -0.599716572E+02
 -0.599466489E+02
 -0.599216405E+02
 -0.598966322E+02
 -0.598716239E+02
 -0.598466155E+02
 -0.598216072E+02
 -0.597965989E+02
 -0.597715905E+02
 -0.597465822E+02
 -0.597215739E+02
 -0.596965655E+02
 -0.596715572E+02
 -0.596465488E+02
 -0.596215405E+02
 -0.595965322E+02
 -0.595715238E+02
 -0.595465155E+02
 -0.595215072E+02
 -0.594964988E+02
 -0.594714905E+02
 -0.594464822E+02
 -0.594214738E+02
 -0.593964655E+02
 -0.593714572E+02
 -0.593464488E+02
 -0.593214405E+02
 -0.592964321E+02
 -0.592714238E+02
 -0.592464155E+02
 -0.592214071E+02
 -0.591963988E+02
 -0.591713905E+02
 -0.591463821E+02
 -0.591213738E+02
 -0.590963655E+02
 -0.590713571E+02
 -0.590463488E+02
 -0.590213404E+02
 -0.589963321E+02
 -0.589713238E+02
 -0.589463154E+02
 -0.589213071E+02
 -0.588962988E+02
 -0.588712904E+02
 -0.588462821E+02
 -0.588212738E+02
 -0.587962654E+02
 -0.587712571E+02
 -0.587462487E+02
 -0.587212404E+02
 -0.586962321E+02
 -0.586712237E+02
 -0.586462154E+02
 -0.586212071E+02
 -0.585961987E+02
 -0.585711904E+02
 -0.585461821E+02
 -0.585211737E+02
 -0.584961654E+02
 -0.584711571E+02
 -0.584461487E+02
 -0.584211404E+02
 -0.583961320E+02
 -0.583711237E+02
 -0.583461154E+02
 -0.583211070E+02
 -0.582960987E+02
 -0.582710904E+02
 -0.582460820E+02
 -0.582210737E+02
 -0.581960654E+02
 -0.581710570E+02
 -0.581460487E+02
 -0.581210403E+02
 -0.580960320E+02
 -0.580710237E+02
 -0.580460153E+02
 -0.580210070E+02
 -0.579959987E+02
 -0.579709903E+02
 -0.579459820E+02
 -0.579209737E+02
 -0.578959653E+02
 -0.578709570E+02
 -0.578459486E+02
 -0.578209403E+02
 -0.577959320E+02
 -0.577709236E+02
 -0.577459153E+02
 -0.577209070E+02
 -0.576958986E+02
 -0.576708903E+02
 -0.576458820E+02
 -0.576208736E+02
 -0.575958653E+02
 -0.575708570E+02
 -0.575458486E+02
 -0.575208403E+02
 -0.574958319E+02
 -0.574708236E+02
 -0.574458153E+02
 -0.574208069E+02
 -0.573957986E+02
 -0.573707903E+02
 -0.573457819E+02
 -0.573207736E+02
 -0.572957653E+02
 -0.572707569E+02
 -0.572457486E+02
 -0.572207402E+02
 -0.571957319E+02
 -0.571707236E+02
 -0.571457152E+02
 -0.571207069E+02
 -0.570956986E+02
 -0.570706902E+02
 -0.570456819E+02
 -0.570206736E+02
 -0.569956652E+02
 -0.569706569E+02
 -0.569456485E+02
 -0.569206402E+02
 -0.568956319E+02
 -0.568706235E+02
 -0.568456152E+02
 -0.568206069E+02
 -0.567955985E+02
 -0.567705902E+02
 -0.567455819E+02
 -0.567205735E+02
 -0.566955652E+02
 -0.566705569E+02
 -0.566455485E+02
 -0.566205402E+02
 -0.565955318E+02
 -0.565705235E+02
 -0.565455152E+02
 -0.565205068E+02
 -0.564954985E+02
 -0.564704902E+02
 -0.564454818E+02
 -0.564204735E+02
 -0.563954652E+02
 -0.563704568E+02
 -0.563454485E+02
 -0.563204401E+02
 -0.562954318E+02
 -0.562704235E+02
 -0.562454151E+02
 -0.562204068E+02
 -0.561953985E+02
 -0.561703901E+02
 -0.561453818E+02
 -0.561203735E+02
 -0.560953651E+02
 -0.560703568E+02
 -0.560453484E+02
 -0.560203401E+02
 -0.559953318E+02
 -0.559703234E+02
 -0.559453151E+02
 -0.559203068E+02
 -0.558952984E+02
 -0.558702901E+02
 -0.558452818E+02
 -0.558202734E+02
 -0.557952651E+02
 -0.557702568E+02
 -0.557452484E+02
 -0.557202401E+02
 -0.556952317E+02
 -0.556702234E+02
 -0.556452151E+02
 -0.556202067E+02
 -0.555951984E+02
 -0.555701901E+02
 -0.555451817E+02
 -0.555201734E+02
 -0.554951651E+02
 -0.554701567E+02
 -0.554451484E+02
 -0.554201400E+02
 -0.553951317E+02
 -0.553701234E+02
 -0.553451150E+02
 -0.553201067E+02
 -0.552950984E+02
 -0.552700900E+02
 -0.552450817E+02
 -0.552200734E+02
 -0.551950650E+02
 -0.551700567E+02
 -0.551450483E+02
 -0.551200400E+02
 -0.550950317E+02
 -0.550700233E+02
 -0.550450150E+02
 -0.550200067E+02
 -0.549949983E+02
 -0.549699900E+02
 -0.549449817E+02
 -0.549199733E+02
 -0.548949650E+02
 -0.548699567E+02
 -0.548449483E+02
 -0.548199400E+02
 -0.547949316E+02
 -0.547699233E+02
 -0.547449150E+02
 -0.547199066E+02
 -0.546948983E+02
 -0.546698900E+02
 -0.546448816E+02
 -0.546198733E+02
 -0.545948650E+02
 -0.545698566E+02
 -0.545448483E+02
 -0.545198399E+02
 -0.544948316E+02
 -0.544698233E+02
 -0.544448149E+02
 -0.544198066E+02
 -0.543947983E+02
 -0.543697899E+02
 -0.543447816E+02
 -0.543197733E+02
 -0.542947649E+02
 -0.542697566E+02
 -0.542447482E+02
 -0.542197399E+02
 -0.541947316E+02
 -0.541697232E+02
 -0.541447149E+02
 -0.541197066E+02
 -0.540946982E+02
 -0.540696899E+02
 -0.540446816E+02
 -0.540196732E+02
 -0.539946649E+02
 -0.539696566E+02
 -0.539446482E+02
 -0.539196399E+02
 -0.538946315E+02
 -0.538696232E+02
 -0.538446149E+02
 -0.538196065E+02
 -0.537945982E+02
 -0.537695899E+02
 -0.537445815E+02
 -0.537195732E+02
 -0.536945649E+02
 -0.536695565E+02
 -0.536445482E+02
 -0.536195398E+02
 -0.535945315E+02
 -0.535695232E+02
 -0.535445148E+02
 -0.535195065E+02
 -0.534944982E+02
 -0.534694898E+02
 -0.534444815E+02
 -0.534194732E+02
 -0.533944648E+02
 -0.533694565E+02
 -0.533444481E+02
 -0.533194398E+02
 -0.532944315E+02
 -0.532694231E+02
 -0.532444148E+02
 -0.532194065E+02
 -0.531943981E+02
 -0.531693898E+02
 -0.531443815E+02
 -0.531193731E+02
 -0.530943648E+02
 -0.530693565E+02
 -0.530443481E+02
 -0.530193398E+02
 -0.529943314E+02
 -0.529693231E+02
 -0.529443148E+02
 -0.529193064E+02
 -0.528942981E+02
 -0.528692898E+02
 -0.528442814E+02
 -0.528192731E+02
 -0.527942648E+02
 -0.527692564E+02
 -0.527442481E+02
 -0.527192397E+02
 -0.526942314E+02
 -0.526692231E+02
 -0.526442147E+02
 -0.526192064E+02
 -0.525941981E+02
 -0.525691897E+02
 -0.525441814E+02
 -0.525191731E+02
 -0.524941647E+02
 -0.524691564E+02
 -0.524441480E+02
 -0.524191397E+02
 -0.523941314E+02
 -0.523691230E+02
 -0.523441147E+02
 -0.523191064E+02
 -0.522940980E+02
 -0.522690897E+02
 -0.522440814E+02
 -0.522190730E+02
 -0.521940647E+02
 -0.521690564E+02
 -0.521440480E+02
 -0.521190397E+02
 -0.520940313E+02
 -0.520690230E+02
 -0.520440147E+02
 -0.520190063E+02
 -0.519939980E+02
 -0.519689897E+02
 -0.519439813E+02
 -0.519189730E+02
 -0.518939647E+02
 -0.518689563E+02
 -0.518439480E+02
 -0.518189396E+02
 -0.517939313E+02
 -0.517689230E+02
 -0.517439146E+02
 -0.517189063E+02
 -0.516938980E+02
 -0.516688896E+02
 -0.516438813E+02
 -0.516188730E+02
 -0.515938646E+02
 -0.515688563E+02
 -0.515438479E+02
 -0.515188396E+02
 -0.514938313E+02
 -0.514688229E+02
 -0.514438146E+02
 -0.514188063E+02
 -0.513937979E+02
 -0.513687896E+02
 -0.513437813E+02
 -0.513187729E+02
 -0.512937646E+02
 -0.512687563E+02
 -0.512437479E+02
 -0.512187396E+02
 -0.511937312E+02
 -0.511687229E+02
 -0.511437146E+02
 -0.511187062E+02
 -0.510936979E+02
 -0.510686896E+02
 -0.510436812E+02
 -0.510186729E+02
 -0.509936646E+02
 -0.509686562E+02
 -0.509436479E+02
 -0.509186395E+02
 -0.508936312E+02
 -0.508686229E+02
 -0.508436145E+02
 -0.508186062E+02
 -0.507935979E+02
 -0.507685895E+02
 -0.507435812E+02
 -0.507185729E+02
 -0.506935645E+02
 -0.506685562E+02
 -0.506435478E+02
 -0.506185395E+02
 -0.505935312E+02
 -0.505685228E+02
 -0.505435145E+02
 -0.505185062E+02
 -0.504934978E+02
 -0.504684895E+02
 -0.504434812E+02
 -0.504184728E+02
 -0.503934645E+02
 -0.503684562E+02
 -0.503434478E+02
 -0.503184395E+02
 -0.502934311E+02
 -0.502684228E+02
 -0.502434145E+02
 -0.502184061E+02
 -0.501933978E+02
 -0.501683895E+02
 -0.501433811E+02
 -0.501183728E+02
 -0.500933645E+02
 -0.500683561E+02
 -0.500433478E+02
 -0.500183394E+02
 -0.499933311E+02
 -0.499683228E+02
 -0.499433144E+02
 -0.499183061E+02
 -0.498932978E+02
 -0.498682894E+02
 -0.498432811E+02
 -0.498182728E+02
 -0.497932644E+02
 -0.497682561E+02
 -0.497432477E+02
 -0.497182394E+02
 -0.496932311E+02
 -0.496682227E+02
 -0.496432144E+02
 -0.496182061E+02
 -0.495931977E+02
 -0.495681894E+02
 -0.495431811E+02
 -0.495181727E+02
 -0.494931644E+02
 -0.494681561E+02
 -0.494431477E+02
 -0.494181394E+02
 -0.493931310E+02
 -0.493681227E+02
 -0.493431144E+02
 -0.493181060E+02
 -0.492930977E+02
 -0.492680894E+02
 -0.492430810E+02
 -0.492180727E+02
 -0.491930644E+02
 -0.491680560E+02
 -0.491430477E+02
 -0.491180393E+02
 -0.490930310E+02
 -0.490680227E+02
 -0.490430143E+02
 -0.490180060E+02
 -0.489929977E+02
 -0.489679893E+02
 -0.489429810E+02
 -0.489179727E+02
 -0.488929643E+02
 -0.488679560E+02
 -0.488429476E+02
 -0.488179393E+02
 -0.487929310E+02
 -0.487679226E+02
 -0.487429143E+02
 -0.487179060E+02
 -0.486928976E+02
 -0.486678893E+02
 -0.486428810E+02
 -0.486178726E+02
 -0.485928643E+02
 -0.485678560E+02
 -0.485428476E+02
 -0.485178393E+02
 -0.484928309E+02
 -0.484678226E+02
 -0.484428143E+02
 -0.484178059E+02
 -0.483927976E+02
 -0.483677893E+02
 -0.483427809E+02
 -0.483177726E+02
 -0.482927643E+02
 -0.482677559E+02
 -0.482427476E+02
 -0.482177392E+02
 -0.481927309E+02
 -0.481677226E+02
 -0.481427142E+02
 -0.481177059E+02
 -0.480926976E+02
 -0.480676892E+02
 -0.480426809E+02
 -0.480176726E+02
 -0.479926642E+02
 -0.479676559E+02
 -0.479426475E+02
 -0.479176392E+02
 -0.478926309E+02
 -0.478676225E+02
 -0.478426142E+02
 -0.478176059E+02
 -0.477925975E+02
 -0.477675892E+02
 -0.477425809E+02
 -0.477175725E+02
 -0.476925642E+02
 -0.476675559E+02
 -0.476425475E+02
 -0.476175392E+02
 -0.475925308E+02
 -0.475675225E+02
 -0.475425142E+02
 -0.475175058E+02
 -0.474924975E+02
 -0.474674892E+02
 -0.474424808E+02
 -0.474174725E+02
 -0.473924642E+02
 -0.473674558E+02
 -0.473424475E+02
 -0.473174391E+02
 -0.472924308E+02
 -0.472674225E+02
 -0.472424141E+02
 -0.472174058E+02
 -0.471923975E+02
 -0.471673891E+02
 -0.471423808E+02
 -0.471173725E+02
 -0.470923641E+02
 -0.470673558E+02
 -0.470423474E+02
 -0.470173391E+02
 -0.469923308E+02
 -0.469673224E+02
 -0.469423141E+02
 -0.469173058E+02
 -0.468922974E+02
 -0.468672891E+02
 -0.468422808E+02
 -0.468172724E+02
 -0.467922641E+02
 -0.467672558E+02
 -0.467422474E+02
 -0.467172391E+02
 -0.466922307E+02
 -0.466672224E+02
 -0.466422141E+02
 -0.466172057E+02
 -0.465921974E+02
 -0.465671891E+02
 -0.465421807E+02
 -0.465171724E+02
 -0.464921641E+02
 -0.464671557E+02
 -0.464421474E+02
 -0.464171390E+02
 -0.463921307E+02
 -0.463671224E+02
 -0.463421140E+02
 -0.463171057E+02
 -0.462920974E+02
 -0.462670890E+02
 -0.462420807E+02
 -0.462170724E+02
 -0.461920640E+02
 -0.461670557E+02
 -0.461420473E+02
 -0.461170390E+02
 -0.460920307E+02
 -0.460670223E+02
 -0.460420140E+02
 -0.460170057E+02
 -0.459919973E+02
 -0.459669890E+02
 -0.459419807E+02
 -0.459169723E+02
 -0.458919640E+02
 -0.458669557E+02
 -0.458419473E+02
 -0.458169390E+02
 -0.457919306E+02
 -0.457669223E+02
 -0.457419140E+02
 -0.457169056E+02
 -0.456918973E+02
 -0.456668890E+02
 -0.456418806E+02
 -0.456168723E+02
 -0.455918640E+02
 -0.455668556E+02
 -0.455418473E+02
 -0.455168389E+02
 -0.454918306E+02
 -0.454668223E+02
 -0.454418139E+02
 -0.454168056E+02
 -0.453917973E+02
 -0.453667889E+02
 -0.453417806E+02
 -0.453167723E+02
 -0.452917639E+02
 -0.452667556E+02
 -0.452417472E+02
 -0.452167389E+02
 -0.451917306E+02
 -0.451667222E+02
 -0.451417139E+02
 -0.451167056E+02
 -0.450916972E+02
 -0.450666889E+02
 -0.450416806E+02
 -0.450166722E+02
 -0.449916639E+02
 -0.449666556E+02
 -0.449416472E+02
 -0.449166389E+02
 -0.448916305E+02
 -0.448666222E+02
 -0.448416139E+02
 -0.448166055E+02
 -0.447915972E+02
 -0.447665889E+02
 -0.447415805E+02
 -0.447165722E+02
 -0.446915639E+02
 -0.446665555E+02
 -0.446415472E+02
 -0.446165388E+02
 -0.445915305E+02
 -0.445665222E+02
 -0.445415138E+02
 -0.445165055E+02
 -0.444914972E+02
 -0.444664888E+02
 -0.444414805E+02
 -0.444164722E+02
 -0.443914638E+02
 -0.443664555E+02
 -0.443414471E+02
 -0.443164388E+02
 -0.442914305E+02
 -0.442664221E+02
 -0.442414138E+02
 -0.442164055E+02
 -0.441913971E+02
 -0.441663888E+02
 -0.441413805E+02
 -0.441163721E+02
 -0.440913638E+02
 -0.440663555E+02
 -0.440413471E+02
 -0.440163388E+02
 -0.439913304E+02
 -0.439663221E+02
 -0.439413138E+02
 -0.439163054E+02
 -0.438912971E+02
 -0.438662888E+02
 -0.438412804E+02
 -0.438162721E+02
 -0.437912638E+02
 -0.437662554E+02
 -0.437412471E+02
 -0.437162387E+02
 -0.436912304E+02
 -0.436662221E+02
 -0.436412137E+02
 -0.436162054E+02
 -0.435911971E+02
 -0.435661887E+02
 -0.435411804E+02
 -0.435161721E+02
 -0.434911637E+02
 -0.434661554E+02
 -0.434411470E+02
 -0.434161387E+02
 -0.433911304E+02
 -0.433661220E+02
 -0.433411137E+02
 -0.433161054E+02
 -0.432910970E+02
 -0.432660887E+02
 -0.432410804E+02
 -0.432160720E+02
 -0.431910637E+02
 -0.431660554E+02
 -0.431410470E+02
 -0.431160387E+02
 -0.430910303E+02
 -0.430660220E+02
 -0.430410137E+02
 -0.430160053E+02
 -0.429909970E+02
 -0.429659887E+02
 -0.429409803E+02
 -0.429159720E+02
 -0.428909637E+02
 -0.428659553E+02
 -0.428409470E+02
 -0.428159386E+02
 -0.427909303E+02
 -0.427659220E+02
 -0.427409136E+02
 -0.427159053E+02
 -0.426908970E+02
 -0.426658886E+02
 -0.426408803E+02
 -0.426158720E+02
 -0.425908636E+02
 -0.425658553E+02
 -0.425408469E+02
 -0.425158386E+02
 -0.424908303E+02
 -0.424658219E+02
 -0.424408136E+02
 -0.424158053E+02
 -0.423907969E+02
 -0.423657886E+02
 -0.423407803E+02
 -0.423157719E+02
 -0.422907636E+02
 -0.422657553E+02
 -0.422407469E+02
 -0.422157386E+02
 -0.421907302E+02
 -0.421657219E+02
 -0.421407136E+02
 -0.421157052E+02
 -0.420906969E+02
 -0.420656886E+02
 -0.420406802E+02
 -0.420156719E+02
 -0.419906636E+02
 -0.419656552E+02
 -0.419406469E+02
 -0.419156385E+02
 -0.418906302E+02
 -0.418656219E+02
 -0.418406135E+02
 -0.418156052E+02
 -0.417905969E+02
 -0.417655885E+02
 -0.417405802E+02
 -0.417155719E+02
 -0.416905635E+02
 -0.416655552E+02
 -0.416405468E+02
 -0.416155385E+02
 -0.415905302E+02
 -0.415655218E+02
 -0.415405135E+02
 -0.415155052E+02
 -0.414904968E+02
 -0.414654885E+02
 -0.414404802E+02
 -0.414154718E+02
 -0.413904635E+02
 -0.413654552E+02
 -0.413404468E+02
 -0.413154385E+02
 -0.412904301E+02
 -0.412654218E+02
 -0.412404135E+02
 -0.412154051E+02
 -0.411903968E+02
 -0.411653885E+02
 -0.411403801E+02
 -0.411153718E+02
 -0.410903635E+02
 -0.410653551E+02
 -0.410403468E+02
 -0.410153384E+02
 -0.409903301E+02
 -0.409653218E+02
 -0.409403134E+02
 -0.409153051E+02
 -0.408902968E+02
 -0.408652884E+02
 -0.408402801E+02
 -0.408152718E+02
 -0.407902634E+02
 -0.407652551E+02
 -0.407402467E+02
 -0.407152384E+02
 -0.406902301E+02
 -0.406652217E+02
 -0.406402134E+02
 -0.406152051E+02
 -0.405901967E+02
 -0.405651884E+02
 -0.405401801E+02
 -0.405151717E+02
 -0.404901634E+02
 -0.404651551E+02
 -0.404401467E+02
 -0.404151384E+02
 -0.403901300E+02
 -0.403651217E+02
 -0.403401134E+02
 -0.403151050E+02
 -0.402900967E+02
 -0.402650884E+02
 -0.402400800E+02
 -0.402150717E+02
 -0.401900634E+02
 -0.401650550E+02
 -0.401400467E+02
 -0.401150383E+02
 -0.400900300E+02
 -0.400650217E+02
 -0.400400133E+02
 -0.400150050E+02
 -0.399899967E+02
 -0.399649883E+02
 -0.399399800E+02
 -0.399149717E+02
 -0.398899633E+02
 -0.398649550E+02
 -0.398399466E+02
 -0.398149383E+02
 -0.397899300E+02
 -0.397649216E+02
 -0.397399133E+02
 -0.397149050E+02
 -0.396898966E+02
 -0.396648883E+02
 -0.396398800E+02
 -0.396148716E+02
 -0.395898633E+02
 -0.395648550E+02
 -0.395398466E+02
 -0.395148383E+02
 -0.394898299E+02
 -0.394648216E+02
 -0.394398133E+02
 -0.394148049E+02
 -0.393897966E+02
 -0.393647883E+02
 -0.393397799E+02
 -0.393147716E+02
 -0.392897633E+02
 -0.392647549E+02
 -0.392397466E+02
 -0.392147382E+02
 -0.391897299E+02
 -0.391647216E+02
 -0.391397132E+02
 -0.391147049E+02
 -0.390896966E+02
 -0.390646882E+02
 -0.390396799E+02
 -0.390146716E+02
 -0.389896632E+02
 -0.389646549E+02
 -0.389396465E+02
 -0.389146382E+02
 -0.388896299E+02
 -0.388646215E+02
 -0.388396132E+02
 -0.388146049E+02
 -0.387895965E+02
 -0.387645882E+02
 -0.387395799E+02
 -0.387145715E+02
 -0.386895632E+02
 -0.386645549E+02
 -0.386395465E+02
 -0.386145382E+02
 -0.385895298E+02
 -0.385645215E+02
 -0.385395132E+02
 -0.385145048E+02
 -0.384894965E+02
 -0.384644882E+02
 -0.384394798E+02
 -0.384144715E+02
 -0.383894632E+02
 -0.383644548E+02
 -0.383394465E+02
 -0.383144381E+02
 -0.382894298E+02
 -0.382644215E+02
 -0.382394131E+02
 -0.382144048E+02
 -0.381893965E+02
 -0.381643881E+02
 -0.381393798E+02
 -0.381143715E+02
 -0.380893631E+02
 -0.380643548E+02
 -0.380393464E+02
 -0.380143381E+02
 -0.379893298E+02
 -0.379643214E+02
 -0.379393131E+02
 -0.379143048E+02
 -0.378892964E+02
 -0.378642881E+02
 -0.378392798E+02
 -0.378142714E+02
 -0.377892631E+02
 -0.377642548E+02
 -0.377392464E+02
 -0.377142381E+02
 -0.376892297E+02
 -0.376642214E+02
 -0.376392131E+02
 -0.376142047E+02
 -0.375891964E+02
 -0.375641881E+02
 -0.375391797E+02
 -0.375141714E+02
 -0.374891631E+02
 -0.374641547E+02
 -0.374391464E+02
 -0.374141380E+02
 -0.373891297E+02
 -0.373641214E+02
 -0.373391130E+02
 -0.373141047E+02
 -0.372890964E+02
 -0.372640880E+02
 -0.372390797E+02
 -0.372140714E+02
 -0.371890630E+02
 -0.371640547E+02
 -0.371390463E+02
 -0.371140380E+02
 -0.370890297E+02
 -0.370640213E+02
 -0.370390130E+02
 -0.370140047E+02
 -0.369889963E+02
 -0.369639880E+02
 -0.369389797E+02
 -0.369139713E+02
 -0.368889630E+02
 -0.368639547E+02
 -0.368389463E+02
 -0.368139380E+02
 -0.367889296E+02
 -0.367639213E+02
 -0.367389130E+02
 -0.367139046E+02
 -0.366888963E+02
 -0.366638880E+02
 -0.366388796E+02
 -0.366138713E+02
 -0.365888630E+02
 -0.365638546E+02
 -0.365388463E+02
 -0.365138379E+02
 -0.364888296E+02
 -0.364638213E+02
 -0.364388129E+02
 -0.364138046E+02
 -0.363887963E+02
 -0.363637879E+02
 -0.363387796E+02
 -0.363137713E+02
 -0.362887629E+02
 -0.362637546E+02
 -0.362387462E+02
 -0.362137379E+02
 -0.361887296E+02
 -0.361637212E+02
 -0.361387129E+02
 -0.361137046E+02
 -0.360886962E+02
 -0.360636879E+02
 -0.360386796E+02
 -0.360136712E+02
 -0.359886629E+02
 -0.359636546E+02
 -0.359386462E+02
 -0.359136379E+02
 -0.358886295E+02
 -0.358636212E+02
 -0.358386129E+02
 -0.358136045E+02
 -0.357885962E+02
 -0.357635879E+02
 -0.357385795E+02
 -0.357135712E+02
 -0.356885629E+02
 -0.356635545E+02
 -0.356385462E+02
 -0.356135378E+02
 -0.355885295E+02
 -0.355635212E+02
 -0.355385128E+02
 -0.355135045E+02
 -0.354884962E+02
 -0.354634878E+02
 -0.354384795E+02
 -0.354134712E+02
 -0.353884628E+02
 -0.353634545E+02
 -0.353384461E+02
 -0.353134378E+02
 -0.352884295E+02
 -0.352634211E+02
 -0.352384128E+02
 -0.352134045E+02
 -0.351883961E+02
 -0.351633878E+02
 -0.351383795E+02
 -0.351133711E+02
 -0.350883628E+02
 -0.350633545E+02
 -0.350383461E+02
 -0.350133378E+02
 -0.349883294E+02
 -0.349633211E+02
 -0.349383128E+02
 -0.349133044E+02
 -0.348882961E+02
 -0.348632878E+02
 -0.348382794E+02
 -0.348132711E+02
 -0.347882628E+02
 -0.347632544E+02
 -0.347382461E+02
 -0.347132377E+02
 -0.346882294E+02
 -0.346632211E+02
 -0.346382127E+02
 -0.346132044E+02
 -0.345881961E+02
 -0.345631877E+02
 -0.345381794E+02
 -0.345131711E+02
 -0.344881627E+02
 -0.344631544E+02
 -0.344381460E+02
 -0.344131377E+02
 -0.343881294E+02
 -0.343631210E+02
 -0.343381127E+02
 -0.343131044E+02
 -0.342880960E+02
 -0.342630877E+02
 -0.342380794E+02
 -0.342130710E+02
 -0.341880627E+02
 -0.341630544E+02
 -0.341380460E+02
 -0.341130377E+02
 -0.340880293E+02
 -0.340630210E+02
 -0.340380127E+02
 -0.340130043E+02
 -0.339879960E+02
 -0.339629877E+02
 -0.339379793E+02
 -0.339129710E+02
 -0.338879627E+02
 -0.338629543E+02
 -0.338379460E+02
 -0.338129376E+02
 -0.337879293E+02
 -0.337629210E+02
 -0.337379126E+02
 -0.337129043E+02
 -0.336878960E+02
 -0.336628876E+02
 -0.336378793E+02
 -0.336128710E+02
 -0.335878626E+02
 -0.335628543E+02
 -0.335378459E+02
 -0.335128376E+02
 -0.334878293E+02
 -0.334628209E+02
 -0.334378126E+02
 -0.334128043E+02
 -0.333877959E+02
 -0.333627876E+02
 -0.333377793E+02
 -0.333127709E+02
 -0.332877626E+02
 -0.332627543E+02
 -0.332377459E+02
 -0.332127376E+02
 -0.331877292E+02
 -0.331627209E+02
 -0.331377126E+02
 -0.331127042E+02
 -0.330876959E+02
 -0.330626876E+02
 -0.330376792E+02
 -0.330126709E+02
 -0.329876626E+02
 -0.329626542E+02
 -0.329376459E+02
 -0.329126375E+02
 -0.328876292E+02
 -0.328626209E+02
 -0.328376125E+02
 -0.328126042E+02
 -0.327875959E+02
 -0.327625875E+02
 -0.327375792E+02
 -0.327125709E+02
 -0.326875625E+02
 -0.326625542E+02
 -0.326375458E+02
 -0.326125375E+02
 -0.325875292E+02
 -0.325625208E+02
 -0.325375125E+02
 -0.325125042E+02
 -0.324874958E+02
 -0.324624875E+02
 -0.324374792E+02
 -0.324124708E+02
 -0.323874625E+02
 -0.323624542E+02
 -0.323374458E+02
 -0.323124375E+02
 -0.322874291E+02
 -0.322624208E+02
 -0.322374125E+02
 -0.322124041E+02
 -0.321873958E+02
 -0.321623875E+02
 -0.321373791E+02
 -0.321123708E+02
 -0.320873625E+02
 -0.320623541E+02
 -0.320373458E+02
 -0.320123374E+02
 -0.319873291E+02
 -0.319623208E+02
 -0.319373124E+02
 -0.319123041E+02
 -0.318872958E+02
 -0.318622874E+02
 -0.318372791E+02
 -0.318122708E+02
 -0.317872624E+02
 -0.317622541E+02
 -0.317372457E+02
 -0.317122374E+02
 -0.316872291E+02
 -0.316622207E+02
 -0.316372124E+02
 -0.316122041E+02
 -0.315871957E+02
 -0.315621874E+02
 -0.315371791E+02
 -0.315121707E+02
 -0.314871624E+02
 -0.314621541E+02
 -0.314371457E+02
 -0.314121374E+02
 -0.313871290E+02
 -0.313621207E+02
 -0.313371124E+02
 -0.313121040E+02
 -0.312870957E+02
 -0.312620874E+02
 -0.312370790E+02
 -0.312120707E+02
 -0.311870624E+02
 -0.311620540E+02
 -0.311370457E+02
 -0.311120373E+02
 -0.310870290E+02
 -0.310620207E+02
 -0.310370123E+02
 -0.310120040E+02
 -0.309869957E+02
 -0.309619873E+02
 -0.309369790E+02
 -0.309119707E+02
 -0.308869623E+02
 -0.308619540E+02
 -0.308369456E+02
 -0.308119373E+02
 -0.307869290E+02
 -0.307619206E+02
 -0.307369123E+02
 -0.307119040E+02
 -0.306868956E+02
 -0.306618873E+02
 -0.306368790E+02
 -0.306118706E+02
 -0.305868623E+02
 -0.305618540E+02
 -0.305368456E+02
 -0.305118373E+02
 -0.304868289E+02
 -0.304618206E+02
 -0.304368123E+02
 -0.304118039E+02
 -0.303867956E+02
 -0.303617873E+02
 -0.303367789E+02
 -0.303117706E+02
 -0.302867623E+02
 -0.302617539E+02
 -0.302367456E+02
 -0.302117372E+02
 -0.301867289E+02
 -0.301617206E+02
 -0.301367122E+02
 -0.301117039E+02
 -0.300866956E+02
 -0.300616872E+02
 -0.300366789E+02
 -0.300116706E+02
 -0.299866622E+02
 -0.299616539E+02
 -0.299366455E+02
 -0.299116372E+02
 -0.298866289E+02
 -0.298616205E+02
 -0.298366122E+02
 -0.298116039E+02
 -0.297865955E+02
 -0.297615872E+02
 -0.297365789E+02
 -0.297115705E+02
 -0.296865622E+02
 -0.296615539E+02
 -0.296365455E+02
 -0.296115372E+02
 -0.295865288E+02
 -0.295615205E+02
 -0.295365122E+02
 -0.295115038E+02
 -0.294864955E+02
 -0.294614872E+02
 -0.294364788E+02
 -0.294114705E+02
 -0.293864622E+02
 -0.293614538E+02
 -0.293364455E+02
 -0.293114371E+02
 -0.292864288E+02
 -0.292614205E+02
 -0.292364121E+02
 -0.292114038E+02
 -0.291863955E+02
 -0.291613871E+02
 -0.291363788E+02
 -0.291113705E+02
 -0.290863621E+02
 -0.290613538E+02
 -0.290363454E+02
 -0.290113371E+02
 -0.289863288E+02
 -0.289613204E+02
 -0.289363121E+02
 -0.289113038E+02
 -0.288862954E+02
 -0.288612871E+02
 -0.288362788E+02
 -0.288112704E+02
 -0.287862621E+02
 -0.287612538E+02
 -0.287362454E+02
 -0.287112371E+02
 -0.286862287E+02
 -0.286612204E+02
 -0.286362121E+02
 -0.286112037E+02
 -0.285861954E+02
 -0.285611871E+02
 -0.285361787E+02