<preamble>

<basis_specs>
===============================================================================
C                    Z=   6    Mass=  12.011        Charge= 0.17977+309
Lmxo=2 Lmxkb= 1    BasisType=split      Semic=F
L=0  Nsemic=0  Cnfigmx=2
          i=1  nzeta=2  polorb=0  (2s)
            splnorm:   0.15000    
               vcte:    40.000    
               rinn:    4.0644    
               qcoe:    0.0000    
               qyuk:    0.0000    
               qwid:   0.10000E-01
                rcs:    4.5114      3.0759    
            lambdas:    1.0000      1.0000    
L=1  Nsemic=0  Cnfigmx=2
          i=1  nzeta=2  polorb=1  (2p)  (to be polarized perturbatively)
            splnorm:   0.15000    
               vcte:    40.000    
               rinn:    4.9414    
               qcoe:    0.0000    
               qyuk:    0.0000    
               qwid:   0.10000E-01
                rcs:    5.4904      3.7440    
            lambdas:    1.0000      1.0000    
L=2  Nsemic=0  Cnfigmx=3
          i=1  nzeta=0  polorb=0  (3d)  (perturbative polarization orbital) (from 2p)
-------------------------------------------------------------------------------
L=0  Nkbl=1  erefs: 0.17977+309
L=1  Nkbl=1  erefs: 0.17977+309
===============================================================================
</basis_specs>

<pseudopotential_header>
 C  pb rel pcec
 ONCVPSP-3.2018-04-23Hamann's oncvpsp                        
 2s 2.00r r= 1.20/2p 2.00r r= 1.26/                                     2s:2p:
</pseudopotential_header>
</preamble>
C                             # Symbol
C                             # Label
    6                         # Atomic number
     4.00000000000                             # Valence charge
     12.0110000000        # Mass 
     20.7380275464        # Self energy 
   2   5                      # Lmax for basis, no. of nl orbitals 
   1   4                      # Lmax for projectors, no. of nl KB projectors
# PAOs:__________________________
  0  2  1  0  2.000000   #orbital l, n, z, is_polarized, population
 500    0.9040955461852367E-02     4.511436775464331     # npts, delta, cutoff
     0.000000000000000        0.3660663041629421    
    0.9040955461852367E-02    0.3662349150814718    
    0.1808191092370473E-01    0.3667477672906099    
    0.2712286638555710E-01    0.3676015582796900    
    0.3616382184740947E-01    0.3687948430799649    
    0.4520477730926183E-01    0.3703256044174277    
    0.5424573277111421E-01    0.3721912571135434    
    0.6328668823296657E-01    0.3743886542265224    
    0.7232764369481894E-01    0.3769140945727349    
    0.8136859915667130E-01    0.3797633315629910    
    0.9040955461852367E-01    0.3829315833137398    
    0.9945051008037603E-01    0.3864135439942579    
    0.1084914655422284        0.3902033963680050    
    0.1175324210040808        0.3942948254827436    
    0.1265733764659331        0.3986810334604300    
    0.1356143319277855        0.4033547553344630    
    0.1446552873896379        0.4083082758787348    
    0.1536962428514903        0.4135334473700416    
    0.1627371983133426        0.4190217082228725    
    0.1717781537751950        0.4247641024333484    
    0.1808191092370473        0.4307512997671772    
    0.1898600646988997        0.4369736166249207    
    0.1989010201607521        0.4434210375166523    
    0.2079419756226044        0.4500832370771815    
    0.2169829310844568        0.4569496025524960    
    0.2260238865463092        0.4640092566878614    
    0.2350648420081616        0.4712510809481504    
    0.2441057974700139        0.4786637390014271    
    0.2531467529318663        0.4862357003975838    
    0.2621877083937186        0.4939552643748968    
    0.2712286638555710        0.5018105837286947    
    0.2802696193174234        0.5097896886779685    
    0.2893105747792757        0.5178805106675771    
    0.2983515302411281        0.5260709060457690    
    0.3073924857029805        0.5343486795589744    
    0.3164334411648329        0.5427016076082470    
    0.3254743966266852        0.5511174612142480    
    0.3345153520885376        0.5595840286403052    
    0.3435563075503900        0.5680891376257998    
    0.3525972630122423        0.5766206771848731    
    0.3616382184740947        0.5851666189282292    
    0.3706791739359471        0.5937150378685757    
    0.3797201293977994        0.6022541326729822    
    0.3887610848596518        0.6107722453281447    
    0.3978020403215041        0.6192578801871478    
    0.4068429957833565        0.6276997223689237    
    0.4158839512452089        0.6360866554840000    
    0.4249249067070612        0.6444077786625807    
    0.4339658621689136        0.6526524228632137    
    0.4430068176307660        0.6608101664425077    
    0.4520477730926183        0.6688708499684183    
    0.4610887285544707        0.6768245902616091    
    0.4701296840163231        0.6846617936512658    
    0.4791706394781755        0.6923731684335621    
    0.4882115949400278        0.6999497365226992    
    0.4972525504018802        0.7073828442861004    
    0.5062935058637326        0.7146641725569679    
    0.5153344613255849        0.7217857458189756    
    0.5243754167874373        0.7287399405594041    
    0.5334163722492896        0.7355194927885230    
    0.5424573277111420        0.7421175047245629    
    0.5514982831729944        0.7485274506450407    
    0.5605392386348468        0.7547431819067196    
    0.5695801940966991        0.7607589311379263    
    0.5786211495585515        0.7665693156084157    
    0.5876621050204038        0.7721693397834039    
    0.5967030604822562        0.7775543970698249    
    0.6057440159441085        0.7827202707642618    
    0.6147849714059610        0.7876631342133597    
    0.6238259268678134        0.7923795501988652    
    0.6328668823296657        0.7968664695606893    
    0.6419078377915181        0.8011212290725923    
    0.6509487932533704        0.8051415485862479    
    0.6599897487152228        0.8089255274604510    
    0.6690307041770751        0.8124716402932896    
    0.6780716596389276        0.8157787319759054    
    0.6871126151007799        0.8188460120873917    
    0.6961535705626323        0.8216730486510707    
    0.7051945260244846        0.8242597612731347    
    0.7142354814863370        0.8266064136853172    
    0.7232764369481893        0.8287136057138755    
    0.7323173924100417        0.8305822646978922    
    0.7413583478718941        0.8322136363805269    
    0.7503993033337465        0.8336092752976078    
    0.7594402587955988        0.8347710346887539    
    0.7684812142574512        0.8357010559570621    
    0.7775221697193035        0.8364017577043988    
    0.7865631251811559        0.8368758243703313    
    0.7956040806430082        0.8371261945039420    
    0.8046450361048607        0.8371560486989270    
    0.8136859915667131        0.8369687972237077    
    0.8227269470285654        0.8365680673795679    
    0.8317679024904178        0.8359576906211486    
    0.8408088579522701        0.8351416894743982    
    0.8498498134141225        0.8341242624841052    
    0.8588907688759748        0.8329097709119080    
    0.8679317243378273        0.8315027288909115    
    0.8769726797996796        0.8299077881279293    
    0.8860136352615320        0.8281297243688401    
    0.8950545907233843        0.8261734239064720    
    0.9040955461852367        0.8240438701598325    
    0.9131365016470890        0.8217461303645278    
    0.9221774571089414        0.8192853424135927    
    0.9312184125707937        0.8166667018870377    
    0.9402593680326462        0.8138954493072901    
    0.9493003234944986        0.8109768576562801    
    0.9583412789563509        0.8079162201883408    
    0.9673822344182033        0.8047188385712976    
    0.9764231898800556        0.8013900113861970    
    0.9854641453419080        0.7979350230141350    
    0.9945051008037603        0.7943591329404214    
     1.003546056265613        0.7906675664132714    
     1.012587011727465        0.7868655020048064    
     1.021627967189317        0.7829580646143940    
     1.030668922651170        0.7789503161985112    
     1.039709878113022        0.7748472472895814    
     1.048750833574875        0.7706537692113289    
     1.057791789036727        0.7663747068333246    
     1.066832744498579        0.7620147918748492    
     1.075873699960432        0.7575786567664702    
     1.084914655422284        0.7530708290760224    
     1.093955610884136        0.7484957265040599    
     1.102996566345989        0.7438576524522742    
     1.112037521807841        0.7391607921668221    
     1.121078477269694        0.7344092094570186    
     1.130119432731546        0.7296068439883354    
     1.139160388193398        0.7247575091471795    
     1.148201343655251        0.7198648904734193    
     1.157242299117103        0.7149325446551599    
     1.166283254578955        0.7099638990781167    
     1.175324210040808        0.7049622519129567    
     1.184365165502660        0.6999307727929491    
     1.193406120964512        0.6948725039652496    
     1.202447076426365        0.6897903616569071    
     1.211488031888217        0.6846871388515997    
     1.220528987350070        0.6795655100107458    
     1.229569942811922        0.6744280369702448    
     1.238610898273774        0.6692771741772480    
     1.247651853735627        0.6641152719643699    
     1.256692809197479        0.6589445796865886    
     1.265733764659331        0.6537672493564993    
     1.274774720121184        0.6485853394258795    
     1.283815675583036        0.6434008188195913    
     1.292856631044889        0.6382155710674664    
     1.301897586506741        0.6330313978363101    
     1.310938541968593        0.6278500218239199    
     1.319979497430446        0.6226730894075763    
     1.329020452892298        0.6175021732910654    
     1.338061408354150        0.6123387753124923    
     1.347102363816003        0.6071843291329707    
     1.356143319277855        0.6020402027179318    
     1.365184274739707        0.5969077007685683    
     1.374225230201560        0.5917880671011884    
     1.383266185663412        0.5866824869372194    
     1.392307141125265        0.5815920891134081    
     1.401348096587117        0.5765179482181237    
     1.410389052048969        0.5714610866535256    
     1.419430007510822        0.5664224766249353    
     1.428470962972674        0.5614030420591613    
     1.437511918434526        0.5564036604534003    
     1.446552873896379        0.5514251646564344    
     1.455593829358231        0.5464683445838590    
     1.464634784820083        0.5415339488691414    
     1.473675740281936        0.5366226864523499    
     1.482716695743788        0.5317352281084028    
     1.491757651205641        0.5268722079167342    
     1.500798606667493        0.5220342246742794    
     1.509839562129345        0.5172218432536883    
     1.518880517591198        0.5124355959086864    
     1.527921473053050        0.5076759835284956    
     1.536962428514902        0.5029434768432106    
     1.546003383976755        0.4982385175820216    
     1.555044339438607        0.4935615195861365    
     1.564085294900460        0.4889128698782378    
     1.573126250362312        0.4842929296902714    
     1.582167205824164        0.4797020354513242    
     1.591208161286016        0.4751404997373097    
     1.600249116747869        0.4706086121841280    
     1.609290072209721        0.4661066403659195    
     1.618331027671574        0.4616348306399826    
     1.627371983133426        0.4571934089598593    
     1.636412938595278        0.4527825816580528    
     1.645453894057131        0.4484025361997604    
     1.654494849518983        0.4440534419089706    
     1.663535804980836        0.4397354506681840    
     1.672576760442688        0.4354486975929874    
     1.681617715904540        0.4311933016826217    
     1.690658671366393        0.4269693664476447    
     1.699699626828245        0.4227769805157167    
     1.708740582290097        0.4186162182164874    
     1.717781537751950        0.4144871401464982    
     1.726822493213802        0.4103897937149630    
     1.735863448675655        0.4063242136712358    
     1.744904404137507        0.4022904226147185    
     1.753945359599359        0.3982884314879170    
     1.762986315061212        0.3943182400533047    
     1.772027270523064        0.3903798373546061    
     1.781068225984916        0.3864732021630751    
     1.790109181446769        0.3825983034092956    
     1.799150136908621        0.3787551006010064    
     1.808191092370473        0.3749435442274104    
     1.817232047832326        0.3711635761503964    
     1.826273003294178        0.3674151299830783    
     1.835313958756031        0.3636981314560295    
     1.844354914217883        0.3600124987715634    
     1.853395869679735        0.3563581429463957    
     1.862436825141587        0.3527349681430025    
     1.871477780603440        0.3491428719899712    
     1.880518736065292        0.3455817458916358    
     1.889559691527145        0.3420514753272624    
     1.898600646988997        0.3385519401400547    
     1.907641602450849        0.3350830148162325    
     1.916682557912702        0.3316445687544335    
     1.925723513374554        0.3282364665256826    
     1.934764468836407        0.3248585681241642    
     1.943805424298259        0.3215107292090388    
     1.952846379760111        0.3181928013375342    
     1.961887335221964        0.3149046321895453    
     1.970928290683816        0.3116460657839733    
     1.979969246145668        0.3084169426870306    
     1.989010201607521        0.3052171002127452    
     1.998051157069373        0.3020463726158864    
     2.007092112531225        0.2989045912775460    
     2.016133067993078        0.2957915848835957    
     2.025174023454930        0.2927071795962534    
     2.034214978916783        0.2896511992189739    
     2.043255934378635        0.2866234653548932    
     2.052296889840487        0.2836237975590451    
     2.061337845302340        0.2806520134845645    
     2.070378800764192        0.2777079290230977    
     2.079419756226045        0.2747913584396286    
     2.088460711687897        0.2719021145019264    
     2.097501667149749        0.2690400086048235    
     2.106542622611602        0.2662048508895175    
     2.115583578073454        0.2633964503580919    
     2.124624533535306        0.2606146149834461    
     2.133665488997158        0.2578591518148122    
     2.142706444459011        0.2551298670790403    
     2.151747399920863        0.2524265662778180    
     2.160788355382716        0.2497490542809867    
     2.169829310844568        0.2470971354161178    
     2.178870266306420        0.2444706135544869    
     2.187911221768273        0.2418692921936038    
     2.196952177230125        0.2392929745364228    
     2.205993132691978        0.2367414635673652    
     2.215034088153830        0.2342145621252859    
     2.224075043615682        0.2317120729734846    
     2.233115999077535        0.2292337988668914    
     2.242156954539387        0.2267795426165127    
     2.251197910001240        0.2243491071512508    
     2.260238865463092        0.2219422955771808    
     2.269279820924944        0.2195589112343805    
     2.278320776386797        0.2171987577513894    
     2.287361731848649        0.2148616390973839    
     2.296402687310501        0.2125473596321356    
     2.305443642772353        0.2102557241538313    
     2.314484598234206        0.2079865379448157    
     2.323525553696058        0.2057396068153296    
     2.332566509157911        0.2035147371452953    
     2.341607464619763        0.2013117359242184    
     2.350648420081615        0.1991304107892578    
     2.359689375543468        0.1969705700615198    
     2.368730331005320        0.1948320227806335    
     2.377771286467172        0.1927145787376536    
     2.386812241929025        0.1906180485063491    
     2.395853197390877        0.1885422434729200    
     2.404894152852730        0.1864869758641984    
     2.413935108314582        0.1844520587743773    
     2.422976063776434        0.1824373061903140    
     2.432017019238287        0.1804425330154605    
     2.441057974700139        0.1784675550924581    
     2.450098930161992        0.1765121892244518    
     2.459139885623844        0.1745762531951594    
     2.468180841085696        0.1726595657877454    
     2.477221796547548        0.1707619468025440    
     2.486262752009401        0.1688832170736672    
     2.495303707471253        0.1670231984845485    
     2.504344662933105        0.1651817139824567    
     2.513385618394958        0.1633585875920218    
     2.522426573856810        0.1615536444278200    
     2.531467529318663        0.1597667107060481    
     2.540508484780515        0.1579976137553324    
     2.549549440242367        0.1562461820266612    
     2.558590395704220        0.1545122451025202    
     2.567631351166072        0.1527956337052306    
     2.576672306627925        0.1510961797046965    
     2.585713262089777        0.1494137161255329    
     2.594754217551629        0.1477480771534852    
     2.603795173013482        0.1460990981410823    
     2.612836128475334        0.1444666156121809    
     2.621877083937187        0.1428504672660089    
     2.630918039399039        0.1412504919806199    
     2.639958994860891        0.1396665298164654    
     2.648999950322743        0.1380984220196793    
     2.658040905784596        0.1365460110248694    
     2.667081861246448        0.1350091404573189    
     2.676122816708300        0.1334876551343235    
     2.685163772170153        0.1319814010661049    
     2.694204727632005        0.1304902254562301    
     2.703245683093858        0.1290139767016817    
     2.712286638555710        0.1275525043925380    
     2.721327594017562        0.1261056593112386    
     2.730368549479415        0.1246732934314862    
     2.739409504941267        0.1232552599168039    
     2.748450460403120        0.1218514131187542    
     2.757491415864972        0.1204616085748390    
     2.766532371326824        0.1190857030060843    
     2.775573326788677        0.1177235543143292    
     2.784614282250529        0.1163750215792311    
     2.793655237712382        0.1150399650550014    
     2.802696193174234        0.1137182461668837    
     2.811737148636086        0.1124097275073848    
     2.820778104097938        0.1111142728322716    
     2.829819059559791        0.1098317470563427    
     2.838860015021643        0.1085620162489870    
     2.847900970483495        0.1073049476295387    
     2.856941925945348        0.1060604095624387    
     2.865982881407200        0.1048282715522122    
     2.875023836869053        0.1036084042382708    
     2.884064792330905        0.1024006793895482    
     2.893105747792757        0.1012049698989794    
     2.902146703254610        0.1000211497778291    
     2.911187658716462        0.9884909414987919E-01
     2.920228614178315        0.9768867924548273E-01
     2.929269569640167        0.9653978239549101E-01
     2.938310525102019        0.9540228202505982E-01
     2.947351480563872        0.9427605764734585E-01
     2.956392436025724        0.9316098985709467E-01
     2.965433391487577        0.9205696032412987E-01
     2.974474346949429        0.9096385178675008E-01
     2.983515302411281        0.8988154804503463E-01
     2.992556257873134        0.8880993395407148E-01
     3.001597213334986        0.8774889541710605E-01
     3.010638168796838        0.8669831937861951E-01
     3.019679124258690        0.8565809381734067E-01
     3.028720079720543        0.8462810773919759E-01
     3.037761035182395        0.8360825117021138E-01
     3.046801990644248        0.8259841514933917E-01
     3.055842946106100        0.8159849172126794E-01
     3.064883901567952        0.8060837392916634E-01
     3.073924857029805        0.7962795580739686E-01
     3.082965812491657        0.7865713237419160E-01
     3.092006767953510        0.7769579962429680E-01
     3.101047723415362        0.7674385452158945E-01
     3.110088678877214        0.7580119499166867E-01
     3.119129634339067        0.7486771991442608E-01
     3.128170589800919        0.7394332911659747E-01
     3.137211545262771        0.7302792336429950E-01
     3.146252500724624        0.7212140435555454E-01
     3.155293456186476        0.7122367471280512E-01
     3.164334411648329        0.7033463797542237E-01
     3.173375367110181        0.6945419859221116E-01
     3.182416322572033        0.6858226191391138E-01
     3.191457278033885        0.6771873418570198E-01
     3.200498233495738        0.6686352253970783E-01
     3.209539188957590        0.6601653498751058E-01
     3.218580144419443        0.6517768041266846E-01
     3.227621099881295        0.6434686856324486E-01
     3.236662055343147        0.6352401004434738E-01
     3.245703010805000        0.6270901631068176E-01
     3.254743966266852        0.6190179965911913E-01
     3.263784921728704        0.6110227322128146E-01
     3.272825877190557        0.6031035095614335E-01
     3.281866832652409        0.5952594764265527E-01
     3.290907788114262        0.5874897887238779E-01
     3.299948743576114        0.5797936104219732E-01
     3.308989699037966        0.5721701134691697E-01
     3.318030654499819        0.5646184777207298E-01
     3.327071609961671        0.5571378908662632E-01
     3.336112565423524        0.5497275483574257E-01
     3.345153520885376        0.5423866533359202E-01
     3.354194476347228        0.5351144165617645E-01
     3.363235431809080        0.5279100563418938E-01
     3.372276387270933        0.5207727984590772E-01
     3.381317342732785        0.5137018761011403E-01
     3.390358298194637        0.5066965297905487E-01
     3.399399253656490        0.4997560073143193E-01
     3.408440209118342        0.4928795636542855E-01
     3.417481164580195        0.4860664609177128E-01
     3.426522120042047        0.4793159682683008E-01
     3.435563075503899        0.4726273618575256E-01
     3.444604030965752        0.4659999247563777E-01
     3.453644986427604        0.4594329468874866E-01
     3.462685941889457        0.4529257249576083E-01
     3.471726897351309        0.4464775623905236E-01
     3.480767852813161        0.4400877692603350E-01
     3.489808808275014        0.4337556622251378E-01
     3.498849763736866        0.4274805644611271E-01
     3.507890719198719        0.4212618055971042E-01
     3.516931674660571        0.4150987216493890E-01
     3.525972630122423        0.4089906549571552E-01
     3.535013585584275        0.4029369541181830E-01
     3.544054541046128        0.3969369739250254E-01
     3.553095496507980        0.3909900753015953E-01
     3.562136451969832        0.3850956252401790E-01
     3.571177407431685        0.3792529967388691E-01
     3.580218362893537        0.3734615687394358E-01
     3.589259318355390        0.3677207260656170E-01
     3.598300273817242        0.3620298593618494E-01
     3.607341229279094        0.3563883650324237E-01
     3.616382184740947        0.3507956451810777E-01
     3.625423140202799        0.3452511075510187E-01
     3.634464095664652        0.3397541654653767E-01
     3.643505051126504        0.3343042377680959E-01
     3.652546006588356        0.3289007487652513E-01
     3.661586962050209        0.3235431281668052E-01
     3.670627917512061        0.3182308110288013E-01
     3.679668872973914        0.3129632376959750E-01
     3.688709828435766        0.3077398537448143E-01
     3.697750783897618        0.3025601099270443E-01
     3.706791739359470        0.2974234621135397E-01
     3.715832694821323        0.2923293712386771E-01
     3.724873650283175        0.2872773032451047E-01
     3.733914605745027        0.2822667290289503E-01
     3.742955561206880        0.2772971243854516E-01
     3.751996516668732        0.2723679699550097E-01
     3.761037472130585        0.2674787511696786E-01
     3.770078427592437        0.2626289582000576E-01
     3.779119383054289        0.2578180859026248E-01
     3.788160338516142        0.2530456337674830E-01
     3.797201293977994        0.2483111058665180E-01
     3.806242249439847        0.2436140108019818E-01
     3.815283204901699        0.2389538616554861E-01
     3.824324160363551        0.2343301759374076E-01
     3.833365115825404        0.2297424755367063E-01
     3.842406071287256        0.2251902866711471E-01
     3.851447026749108        0.2206731398379408E-01
     3.860487982210961        0.2161905697647657E-01
     3.869528937672813        0.2117421153612173E-01
     3.878569893134665        0.2073273196706413E-01
     3.887610848596518        0.2029457298223650E-01
     3.896651804058370        0.1985968969843325E-01
     3.905692759520222        0.1942803763161192E-01
     3.914733714982075        0.1899957269223508E-01
     3.923774670443927        0.1857425118064952E-01
     3.932815625905780        0.1815202978250506E-01
     3.941856581367632        0.1773286556421127E-01
     3.950897536829484        0.1731671596843166E-01
     3.959938492291337        0.1690353880961642E-01
     3.968979447753189        0.1649329226957166E-01
     3.978020403215041        0.1608593489306695E-01
     3.987061358676894        0.1568142558347846E-01
     3.996102314138746        0.1527972359846954E-01
     4.005143269600598        0.1488078854570808E-01
     4.014184225062451        0.1448458037861860E-01
     4.023225180524303        0.1409105939217130E-01
     4.032266135986156        0.1370018621870577E-01
     4.041307091448008        0.1331192182379099E-01
     4.050348046909860        0.1292622750211862E-01
     4.059389002371713        0.1254306487343291E-01
     4.068429957833565        0.1216239587849333E-01
     4.077470913295418        0.1178418277507212E-01
     4.086511868757269        0.1140838813398607E-01
     4.095552824219122        0.1103497483703640E-01
     4.104593779680974        0.1066390618032189E-01
     4.113634735142827        0.1029514717547233E-01
     4.122675690604679        0.9928670285769594E-02
     4.131716646066532        0.9564467976173684E-02
     4.140757601528384        0.9202569652683262E-02
     4.149798556990237        0.8843057747153542E-02
     4.158839512452089        0.8486078851899835E-02
     4.167880467913941        0.8131848380394938E-02
     4.176921423375793        0.7780649199453602E-02
     4.185962378837646        0.7432825613962581E-02
     4.195003334299498        0.7088774277277530E-02
     4.204044289761351        0.6748933416177692E-02
     4.213085245223203        0.6413771446588751E-02
     4.222126200685056        0.6083775742783572E-02
     4.231167156146908        0.5759442059555805E-02
     4.240208111608760        0.5441264905489835E-02
     4.249249067070613        0.5129729020399070E-02
     4.258290022532464        0.4825302010312602E-02
     4.267330977994317        0.4528428127810013E-02
     4.276371933456169        0.4239523144513162E-02
     4.285412888918022        0.3958970238682822E-02
     4.294453844379874        0.3687116808653813E-02
     4.303494799841727        0.3424272118295453E-02
     4.312535755303579        0.3170705681053681E-02
     4.321576710765432        0.2926646292476718E-02
     4.330617666227284        0.2692281626157935E-02
     4.339658621689136        0.2467758313842856E-02
     4.348699577150988        0.2253182436443472E-02
     4.357740532612841        0.2048620358440704E-02
     4.366781488074693        0.1854099843306980E-02
     4.375822443536546        0.1669611391823373E-02
     4.384863398998398        0.1495109748133275E-02
     4.393904354460251        0.1330515519534124E-02
     4.402945309922103        0.1175716854501700E-02
     4.411986265383955        0.1030571117769763E-02
     4.421027220845807        0.8949064887225041E-03
     4.430068176307659        0.7685233846912542E-03
     4.439109131769512        0.6511955635672286E-03
     4.448150087231364        0.5426706683986708E-03
     4.457191042693217        0.4426697903382134E-03
     4.466231998155069        0.3508852221172891E-03
     4.475272953616922        0.2669746136037362E-03
     4.484313909078774        0.1905471543537867E-03
     4.493354864540627        0.1211290821189937E-03
     4.502395820002479        0.5806028439312240E-04
     4.511436775464331         0.000000000000000    
  0  2  2  0  0.000000   #orbital l, n, z, is_polarized, population
 500    0.6164044554379431E-02     3.075858232635336     # npts, delta, cutoff
     0.000000000000000        0.2090240083119501    
    0.6164044554379431E-02    0.2091582684214171    
    0.1232808910875886E-01    0.2095735551769583    
    0.1849213366313829E-01    0.2102653442123741    
    0.2465617821751772E-01    0.2112330940736074    
    0.3082022277189716E-01    0.2124760496230834    
    0.3698426732627658E-01    0.2139932417453085    
    0.4314831188065602E-01    0.2157834882681771    
    0.4931235643503545E-01    0.2178453952434655    
    0.5547640098941488E-01    0.2201773584892528    
    0.6164044554379431E-01    0.2227775653726077    
    0.6780449009817374E-01    0.2256439968242875    
    0.7396853465255317E-01    0.2287744295802617    
    0.8013257920693261E-01    0.2321664386455805    
    0.8629662376131203E-01    0.2358173999761005    
    0.9246066831569147E-01    0.2397244933734112    
    0.9862471287007089E-01    0.2438847055879939    
    0.1047887574244503        0.2482948336253915    
    0.1109528019788298        0.2529514882498414    
    0.1171168465332092        0.2578510976795461    
    0.1232808910875886        0.2629899114674847    
    0.1294449356419680        0.2683640045613844    