 written on 18Mar2024 at 13:02:21 
  -2.6988037638089994        0.0000000000000000        2.6988037638089994     
   0.0000000000000000        2.6988037638089994        2.6988037638089994     
  -2.6988037638089994        2.6988037638089994        0.0000000000000000     
           4
          93
    4    6    2    2    2    1    2    2    1    1    2    6    2    2    2
    6    2    2    4    1    1    1    4    1    1    1    1    2    1    1
    1    2    2    1    1    2    4    2    1    2    1    1    1    1    2
    1    1    1    2    1    1    1    1    2    1    2    4    2    1    1
    2    2    1    1    1    2    1    1    1    1    4    1    1    1    4
    2    2    6    2    2    2    6    2    1    1    2    2    1    2    2
    2    6    4

   -3    1    1
    1    1    0.55361991E-02  0.14041872E-08
    2    1   -0.14731965E-02 -0.52396888E-08
    3    1   -0.14731954E-02  0.37846188E-08
    4    1   -0.14732069E-02 -0.25484941E-08
    1    2   -0.14731832E-02  0.41460507E-08
    2    2    0.55361832E-02 -0.64875514E-09
    3    2   -0.14731935E-02 -0.62739806E-08
    4    2   -0.14731854E-02  0.19379965E-08
    1    3   -0.14732117E-02 -0.76360555E-08
    2    3   -0.14731934E-02 -0.23569816E-08
    3    3    0.55361991E-02  0.51816285E-08
    4    3   -0.14731886E-02  0.63304608E-08
    1    4   -0.14731872E-02  0.46705291E-08
    2    4   -0.14731947E-02  0.84036757E-08
    3    4   -0.14731923E-02 -0.60975359E-08
    4    4    0.55361941E-02 -0.59367793E-08

   -2   -2    2
    1    1    0.32581209E-02 -0.20642319E-17
    2    1   -0.10051425E-02  0.33223144E-08
    3    1   -0.10051467E-02 -0.41261364E-08
    4    1   -0.10051522E-02  0.36322047E-08
    1    2   -0.10051425E-02 -0.33223144E-08
    2    2    0.32581094E-02 -0.10584102E-16
    3    2   -0.10051447E-02 -0.63934023E-08
    4    2   -0.10051507E-02 -0.27129991E-08
    1    3   -0.10051467E-02  0.41261363E-08
    2    3   -0.10051447E-02  0.63934023E-08
    3    3    0.32581177E-02 -0.35359906E-17
    4    3   -0.10051444E-02 -0.62417682E-08
    1    4   -0.10051522E-02 -0.36322047E-08
    2    4   -0.10051507E-02  0.27129990E-08
    3    4   -0.10051444E-02  0.62417682E-08
    4    4    0.32581143E-02 -0.27087293E-17

   -2   -1    1
    1    1    0.20195267E-02 -0.21826110E-08
    2    1   -0.94647230E-03  0.29917853E-10
    3    1   -0.10051445E-02  0.50884408E-08
    4    1   -0.94646111E-03 -0.12434550E-08
    1    2    0.88657695E-03  0.11518339E-08
    2    2   -0.15839731E-02 -0.65716191E-09
    3    2   -0.94646425E-03  0.30255814E-08
    4    2    0.36322010E-02  0.69143670E-08
    1    3   -0.18145784E-02 -0.12025458E-07
    2    3    0.88656096E-03 -0.11107174E-07
    3    3    0.20195236E-02 -0.19802584E-08
    4    3    0.88656468E-03  0.67522509E-08
    1    4    0.88655149E-03  0.23972902E-09
    2    4    0.36322047E-02 -0.92174799E-08
    3    4   -0.94646623E-03  0.61004383E-08
    4    4   -0.15839878E-02  0.48193418E-08

   -2   -1    2
    1    1   -0.15839894E-02  0.36866116E-08
    2    1    0.36322052E-02  0.84860514E-09
    3    1   -0.94646385E-03 -0.67450579E-08
    4    1    0.88656568E-03 -0.91861364E-08
    1    2    0.36321980E-02 -0.77844501E-08
    2    2   -0.15839751E-02 -0.13277559E-08
    3    2   -0.94646947E-03 -0.66148793E-08
    4    2    0.88655814E-03  0.70651240E-08
    1    3    0.88655637E-03  0.13457655E-07
    2    3    0.88657318E-03 -0.40347835E-08
    3    3    0.20195266E-02 -0.90384108E-09
    4    3   -0.18145738E-02  0.12242256E-07
    1    4   -0.94647378E-03 -0.41959597E-08
    2    4   -0.94646411E-03  0.18507820E-08
    3    4   -0.10051482E-02  0.10842518E-07
    4    4    0.20195273E-02 -0.14548255E-08

   -2    0    0
    1    1   -0.16885626E-02  0.71771469E-16
    2    1    0.16964083E-02 -0.54570760E-08
    3    1   -0.18145735E-02  0.64550824E-08
    4    1    0.16963969E-02  0.10628108E-07
    1    2    0.16964083E-02  0.54570758E-08
    2    2    0.99141913E-01  0.10629311E-15
    3    2    0.16964029E-02 -0.54431577E-08
    4    2   -0.14545239E+00 -0.50943512E-08
    1    3   -0.18145735E-02 -0.64550826E-08
    2    3    0.16964029E-02  0.54431575E-08
    3    3   -0.16885718E-02  0.78075958E-16
    4    3    0.16963987E-02 -0.14668940E-08
    1    4    0.16963969E-02 -0.10628109E-07
    2    4   -0.14545239E+00  0.50943508E-08
    3    4    0.16963987E-02  0.14668938E-08
    4    4    0.99141929E-01  0.10088332E-15

   -2    0    1
    1    1   -0.73858609E-02 -0.11391769E-08
    2    1    0.54168955E-03  0.27927476E-08
    3    1    0.88657322E-03 -0.48169323E-08
    4    1    0.16964034E-02 -0.11361682E-07
    1    2    0.14104034E-01  0.15787840E-07
    2    2    0.55365794E-02  0.38014966E-08
    3    2   -0.13339081E-01  0.76151530E-08
    4    2    0.14104019E-01  0.65721210E-08
    1    3   -0.17152975E-02 -0.18049641E-08
    2    3   -0.14731905E-02  0.52418465E-09
    3    3    0.35078304E-02 -0.40727150E-08
    4    3   -0.17152931E-02  0.11291992E-08
    1    4    0.16963989E-02 -0.66054521E-08
    2    4    0.54167912E-03 -0.77934693E-09
    3    4    0.88656014E-03 -0.44861723E-08
    4    4   -0.73858621E-02  0.14099933E-08

   -2    0    2
    1    1    0.99141919E-01  0.14506777E-16
    2    1   -0.14545238E+00  0.66686677E-08
    3    1    0.16963990E-02 -0.49755245E-09
    4    1    0.16964004E-02 -0.65800702E-08
    1    2   -0.14545238E+00 -0.66686677E-08
    2    2    0.99141928E-01 -0.28400382E-17
    3    2    0.16964010E-02  0.73033025E-08
    4    2    0.16964053E-02  0.38817828E-08
    1    3    0.16963990E-02  0.49755244E-09
    2    3    0.16964010E-02 -0.73033025E-08
    3    3   -0.16885627E-02 -0.92590555E-17
    4    3   -0.18145788E-02  0.82205779E-08
    1    4    0.16964004E-02  0.65800702E-08
    2    4    0.16964053E-02 -0.38817827E-08
    3    4   -0.18145788E-02 -0.82205779E-08
    4    4   -0.16885767E-02 -0.54518512E-17

   -2    1   -1
    1    1    0.20195267E-02  0.21826111E-08
    2    1    0.88657695E-03 -0.11518339E-08
    3    1   -0.18145784E-02  0.12025457E-07
    4    1    0.88655149E-03 -0.23972903E-09
    1    2   -0.94647230E-03 -0.29917876E-10
    2    2   -0.15839731E-02  0.65716191E-09
    3    2    0.88656096E-03  0.11107174E-07
    4    2    0.36322047E-02  0.92174799E-08
    1    3   -0.10051445E-02 -0.50884409E-08
    2    3   -0.94646425E-03 -0.30255814E-08
    3    3    0.20195236E-02  0.19802585E-08
    4    3   -0.94646623E-03 -0.61004383E-08
    1    4   -0.94646111E-03  0.12434550E-08
    2    4    0.36322010E-02 -0.69143670E-08
    3    4    0.88656468E-03 -0.67522509E-08
    4    4   -0.15839878E-02 -0.48193418E-08

   -2    1    0
    1    1    0.35078296E-02  0.41868849E-08
    2    1   -0.14731964E-02 -0.62909159E-08
    3    1   -0.17152970E-02 -0.43680284E-08
    4    1   -0.17152874E-02  0.69416733E-08
    1    2   -0.13339098E-01 -0.26652052E-08
    2    2    0.55365785E-02 -0.93775646E-08
    3    2    0.14104042E-01 -0.72175459E-08
    4    2    0.14104008E-01 -0.47858800E-08
    1    3    0.88657654E-03  0.15458814E-07
    2    3    0.54167471E-03  0.24155749E-08
    3    3   -0.73858621E-02  0.61902691E-09
    4    3    0.16964112E-02  0.10364285E-07
    1    4    0.88657001E-03 -0.10010612E-07
    2    4    0.54168397E-03 -0.33828568E-08
    3    4    0.16964092E-02 -0.22866145E-08
    4    4   -0.73858592E-02  0.45715891E-08

   -2    1    1
    1    1   -0.73858683E-02 -0.10625781E-09
    2    1    0.54168250E-03  0.59877245E-08
    3    1    0.16964020E-02 -0.22412842E-08
    4    1    0.88656388E-03 -0.75472719E-08
    1    2    0.14104037E-01  0.73060445E-08
    2    2    0.55365809E-02  0.36316438E-09
    3    2    0.14104023E-01  0.30829438E-08
    4    2   -0.13339064E-01 -0.79420118E-08
    1    3    0.16963884E-02 -0.99954780E-08
    2    3    0.54169054E-03 -0.33516516E-08
    3    3   -0.73858620E-02 -0.30812282E-09
    4    3    0.88655360E-03  0.43990665E-08
    1    4   -0.17152912E-02  0.64115466E-10
    2    4   -0.14731903E-02  0.34606700E-08
    3    4   -0.17152891E-02  0.54252848E-08
    4    4    0.35078362E-02  0.51848178E-10

   -2    1    2
    1    1   -0.15839894E-02 -0.36866116E-08
    2    1    0.36321980E-02  0.77844501E-08
    3    1    0.88655637E-03 -0.13457655E-07
    4    1   -0.94647378E-03  0.41959597E-08
    1    2    0.36322052E-02 -0.84860514E-09
    2    2   -0.15839751E-02  0.13277559E-08
    3    2    0.88657318E-03  0.40347834E-08
    4    2   -0.94646411E-03 -0.18507820E-08
    1    3   -0.94646385E-03  0.67450579E-08
    2    3   -0.94646947E-03  0.66148793E-08
    3    3    0.20195266E-02  0.90384105E-09
    4    3   -0.10051482E-02 -0.10842518E-07
    1    4    0.88656568E-03  0.91861364E-08
    2    4    0.88655814E-03 -0.70651240E-08
    3    4   -0.18145738E-02 -0.12242256E-07
    4    4    0.20195273E-02  0.14548255E-08

   -2    2   -2
    1    1    0.32581209E-02 -0.13529797E-16
    2    1   -0.10051425E-02  0.33223144E-08
    3    1   -0.10051467E-02 -0.41261364E-08
    4    1   -0.10051522E-02  0.36322047E-08
    1    2   -0.10051425E-02 -0.33223144E-08
    2    2    0.32581094E-02 -0.10584102E-16
    3    2   -0.10051447E-02 -0.63934023E-08
    4    2   -0.10051507E-02 -0.27129991E-08
    1    3   -0.10051467E-02  0.41261363E-08
    2    3   -0.10051447E-02  0.63934023E-08
    3    3    0.32581177E-02  0.79295744E-17
    4    3   -0.10051444E-02 -0.62417682E-08
    1    4   -0.10051522E-02 -0.36322047E-08
    2    4   -0.10051507E-02  0.27129991E-08
    3    4   -0.10051444E-02  0.62417682E-08
    4    4    0.32581143E-02 -0.27087293E-17

   -2    2   -1
    1    1    0.20195291E-02  0.20874910E-08
    2    1    0.88657159E-03 -0.25208711E-08
    3    1    0.88656032E-03 -0.32153337E-08
    4    1   -0.18145692E-02 -0.16400981E-07
    1    2   -0.94646945E-03  0.72511413E-08
    2    2   -0.15839750E-02 -0.51995334E-08
    3    2    0.36321904E-02 -0.53003946E-08
    4    2    0.88655501E-03 -0.27377079E-09
    1    3   -0.94647305E-03  0.16091907E-08
    2    3    0.36322021E-02 -0.52896101E-08
    3    3   -0.15839907E-02  0.51095770E-08
    4    3    0.88657002E-03  0.93606572E-08
    1    4   -0.10051438E-02 -0.59848348E-08
    2    4   -0.94646550E-03  0.21846311E-08
    3    4   -0.94646399E-03  0.13151387E-07
    4    4    0.20195259E-02 -0.19974403E-08

   -2    2    0
    1    1   -0.16885640E-02  0.80080874E-17
    2    1    0.16963889E-02 -0.43580716E-08
    3    1    0.16964079E-02 -0.38472153E-09
    4    1   -0.18145771E-02  0.11697084E-08
    1    2    0.16963889E-02  0.43580716E-08
    2    2    0.99141920E-01 -0.12988668E-16
    3    2   -0.14545238E+00  0.48757515E-08
    4    2    0.16964302E-02  0.41257681E-08
    1    3    0.16964079E-02  0.38472152E-09
    2    3   -0.14545238E+00 -0.48757515E-08
    3    3    0.99141927E-01  0.10040529E-16
    4    3    0.16963823E-02  0.20846659E-08
    1    4   -0.18145771E-02 -0.11697084E-08
    2    4    0.16964302E-02 -0.41257681E-08
    3    4    0.16963823E-02 -0.20846660E-08
    4    4   -0.16885749E-02  0.34693432E-17

   -2    2    1
    1    1    0.20195291E-02 -0.20874910E-08
    2    1   -0.94646945E-03 -0.72511413E-08
    3    1   -0.94647305E-03 -0.16091907E-08
    4    1   -0.10051438E-02  0.59848348E-08
    1    2    0.88657159E-03  0.25208711E-08
    2    2   -0.15839750E-02  0.51995334E-08
    3    2    0.36322021E-02  0.52896101E-08
    4    2   -0.94646550E-03 -0.21846311E-08
    1    3    0.88656032E-03  0.32153336E-08
    2    3    0.36321904E-02  0.53003947E-08
    3    3   -0.15839907E-02 -0.51095770E-08
    4    3   -0.94646399E-03 -0.13151387E-07
    1    4   -0.18145692E-02  0.16400981E-07
    2    4    0.88655501E-03  0.27377078E-09
    3    4    0.88657002E-03 -0.93606572E-08
    4    4    0.20195259E-02  0.19974403E-08

   -2    2    2
    1    1    0.32581209E-02 -0.12620635E-16
    2    1   -0.10051425E-02  0.33223144E-08
    3    1   -0.10051467E-02 -0.41261364E-08
    4    1   -0.10051522E-02  0.36322047E-08
    1    2   -0.10051425E-02 -0.33223144E-08
    2    2    0.32581094E-02 -0.21140514E-16
    3    2   -0.10051447E-02 -0.63934023E-08
    4    2   -0.10051507E-02 -0.27129991E-08
    1    3   -0.10051467E-02  0.41261364E-08
    2    3   -0.10051447E-02  0.63934023E-08
    3    3    0.32581177E-02 -0.26268299E-17
    4    3   -0.10051444E-02 -0.62417682E-08
    1    4   -0.10051522E-02 -0.36322047E-08
    2    4   -0.10051507E-02  0.27129991E-08
    3    4   -0.10051444E-02  0.62417682E-08
    4    4    0.32581143E-02 -0.17995684E-17

   -1   -2    1
    1    1    0.20195304E-02 -0.33812892E-08
    2    1   -0.10051470E-02 -0.16707609E-08
    3    1   -0.94647847E-03 -0.30845668E-08
    4    1   -0.94646266E-03  0.39784535E-08
    1    2   -0.18145730E-02  0.92644128E-09
    2    2    0.20195294E-02  0.27641248E-08
    3    2    0.88657338E-03  0.72279310E-08
    4    2    0.88655490E-03 -0.36835208E-08
    1    3    0.88656763E-03  0.14249847E-08
    2    3   -0.94647937E-03  0.19087102E-08
    3    3   -0.15839865E-02 -0.60629842E-08
    4    3    0.36322096E-02 -0.12105834E-07
    1    4    0.88655888E-03 -0.37892176E-08
    2    4   -0.94646353E-03 -0.36115216E-08
    3    4    0.36322076E-02  0.86375663E-08
    4    4   -0.15839840E-02  0.66793028E-08

   -1   -2    2
    1    1   -0.15839824E-02 -0.21694132E-08
    2    1   -0.94646413E-03 -0.23163707E-09
    3    1    0.36322065E-02 -0.22505210E-07
    4    1    0.88655995E-03 -0.57854631E-08
    1    2    0.88655007E-03 -0.91321259E-08
    2    2    0.20195337E-02 -0.16889058E-08
    3    2    0.88655998E-03  0.86115353E-08
    4    2   -0.18145731E-02 -0.27714342E-08
    1    3    0.36322022E-02  0.16172777E-07
    2    3   -0.94646196E-03  0.21698805E-08
    3    3   -0.15839897E-02  0.20397492E-08
    4    3    0.88656509E-03  0.40265208E-08
    1    4   -0.94647479E-03 -0.69701983E-08
    2    4   -0.10051441E-02  0.92596827E-09
    3    4   -0.94645780E-03  0.14588713E-07
    4    4    0.20195278E-02  0.18190990E-08

   -1   -1   -1
    1    1    0.55361991E-02 -0.14041871E-08
    2    1   -0.14731832E-02 -0.41460508E-08
    3    1   -0.14732117E-02  0.76360555E-08
    4    1   -0.14731872E-02 -0.46705290E-08
    1    2   -0.14731965E-02  0.52396888E-08
    2    2    0.55361832E-02  0.64875515E-09
    3    2   -0.14731934E-02  0.23569816E-08
    4    2   -0.14731947E-02 -0.84036757E-08
    1    3   -0.14731954E-02 -0.37846189E-08
    2    3   -0.14731935E-02  0.62739806E-08
    3    3    0.55361991E-02 -0.51816285E-08
    4    3   -0.14731923E-02  0.60975359E-08
    1    4   -0.14732069E-02  0.25484941E-08
    2    4   -0.14731854E-02 -0.19379965E-08
    3    4   -0.14731886E-02 -0.63304608E-08
    4    4    0.55361941E-02  0.59367793E-08

   -1   -1    0
    1    1    0.35078204E-02 -0.58844933E-08
    2    1    0.88655583E-03 -0.46424970E-08
    3    1    0.88657183E-03 -0.11161834E-07
    4    1   -0.13339089E-01  0.21037093E-07
    1    2   -0.17152995E-02 -0.28748411E-08
    2    2   -0.73858559E-02  0.60465466E-08
    3    2    0.16963877E-02 -0.38498224E-09
    4    2    0.14104052E-01  0.54398820E-08
    1    3   -0.17152995E-02 -0.50099999E-08
    2    3    0.16963993E-02 -0.25233439E-08
    3    3   -0.73858629E-02  0.56499622E-08
    4    3    0.14104053E-01  0.20388776E-07
    1    4   -0.14731963E-02 -0.83655195E-08
    2    4    0.54168407E-03 -0.37990447E-08
    3    4    0.54169664E-03  0.23486552E-08
    4    4    0.55365852E-02 -0.58121709E-08

   -1   -1    1
    1    1   -0.16632195E-02  0.21407951E-08
    2    1    0.36322013E-02  0.17059390E-08
    3    1    0.36322101E-02 -0.73445705E-08
    4    1   -0.13339076E-01 -0.24105092E-07
    1    2    0.20749685E-01 -0.43434807E-09
    2    2   -0.16632063E-02 -0.25798530E-08
    3    2   -0.13339062E-01  0.67460410E-08
    4    2    0.20749698E-01  0.45376859E-07
    1    3    0.20749667E-01  0.24427419E-07
    2    3   -0.13339083E-01 -0.12842466E-07
    3    3   -0.16632135E-02 -0.83966046E-08
    4    3    0.20749674E-01 -0.14703476E-08
    1    4   -0.13339106E-01 -0.72160104E-08
    2    4    0.36322077E-02 -0.42874841E-08
    3    4    0.36322047E-02  0.72846259E-08
    4    4   -0.16632162E-02  0.88349444E-08

   -1   -1    2
    1    1    0.55365804E-02  0.28178596E-08
    2    1    0.54168544E-03  0.52066592E-08
    3    1    0.54169669E-03 -0.28857802E-08
    4    1   -0.14731930E-02  0.58440211E-08
    1    2    0.14104027E-01  0.10735985E-07
    2    2   -0.73858566E-02 -0.13758756E-08
    3    2    0.16963973E-02  0.49304978E-08
    4    2   -0.17152786E-02 -0.10893315E-07
    1    3    0.14104011E-01 -0.28576367E-08
    2    3    0.16964057E-02 -0.40139919E-08
    3    3   -0.73858623E-02 -0.29483546E-08
    4    3   -0.17152797E-02 -0.65188335E-08
    1    4   -0.13339060E-01  0.23065292E-07
    2    4    0.88656566E-03 -0.78321877E-08
    3    4    0.88653646E-03 -0.32070216E-08
    4    4    0.35078253E-02  0.15059641E-08

   -1   -1    3
    1    1    0.55361991E-02 -0.14041872E-08
    2    1   -0.14731832E-02 -0.41460507E-08
    3    1   -0.14732117E-02  0.76360555E-08
    4    1   -0.14731872E-02 -0.46705290E-08
    1    2   -0.14731965E-02  0.52396888E-08
    2    2    0.55361832E-02  0.64875514E-09
    3    2   -0.14731934E-02  0.23569816E-08
    4    2   -0.14731947E-02 -0.84036757E-08
    1    3   -0.14731954E-02 -0.37846189E-08
    2    3   -0.14731935E-02  0.62739806E-08
    3    3    0.55361991E-02 -0.51816285E-08
    4    3   -0.14731923E-02  0.60975358E-08
    1    4   -0.14732069E-02  0.25484941E-08
    2    4   -0.14731854E-02 -0.19379965E-08
    3    4   -0.14731886E-02 -0.63304608E-08
    4    4    0.55361941E-02  0.59367793E-08

   -1    0   -1
    1    1   -0.73858579E-02  0.38056499E-10
    2    1    0.16963942E-02 -0.45846439E-08
    3    1   -0.17152942E-02  0.20798685E-07
    4    1    0.14104044E-01 -0.28430489E-07
    1    2    0.16964057E-02  0.28062526E-08
    2    2   -0.73858580E-02 -0.33251100E-08
    3    2   -0.17152922E-02  0.64352598E-08
    4    2    0.14104036E-01  0.17755255E-08
    1    3    0.88656693E-03 -0.68890321E-08
    2    3    0.88657912E-03 -0.48927914E-08
    3    3    0.35078244E-02  0.31068692E-08
    4    3   -0.13339105E-01  0.13431783E-07
    1    4    0.54168535E-03 -0.24181336E-08
    2    4    0.54168425E-03 -0.48345091E-08
    3    4   -0.14731872E-02 -0.24700592E-08
    4    4    0.55365783E-02  0.18091179E-09

   -1    0    0
    1    1   -0.47578466E-01  0.11961384E-08
    2    1    0.14104046E-01 -0.17728000E-07
    3    1    0.20749694E-01 -0.27803164E-07
    4    1   -0.94575779E-01  0.81796427E-08
    1    2   -0.94575813E-01  0.10706148E-08
    2    2    0.34862161E+00 -0.89750977E-08
    3    2   -0.94575854E-01 -0.22419667E-07
    4    2   -0.12548854E+01 -0.11422427E-07
    1    3    0.20749686E-01  0.31896429E-07
    2    3    0.14104021E-01  0.97356030E-08
    3    3   -0.47578494E-01  0.17399782E-08
    4    3   -0.94575770E-01  0.43053994E-08
    1    4    0.14104022E-01  0.14027025E-07
    2    4   -0.14545238E+00  0.96759703E-08
    3    4    0.14104030E-01 -0.17099758E-07
    4    4    0.34862164E+00  0.60385740E-08

   -1    0    1
    1    1    0.34862165E+00 -0.50261372E-08
    2    1   -0.14545238E+00  0.12776120E-07
    3    1    0.14104028E-01  0.74424946E-08
    4    1    0.14104022E-01  0.84806069E-09
    1    2   -0.12548854E+01 -0.37670635E-07
    2    2    0.34862164E+00  0.33779054E-08
    3    2   -0.94575799E-01 -0.84088678E-08
    4    2   -0.94575804E-01  0.22155335E-07
    1    3   -0.94575771E-01 -0.23267637E-07
    2    3    0.14104029E-01  0.19355291E-08
    3    3   -0.47578485E-01 -0.57893289E-08
    4    3    0.20749678E-01  0.25201655E-07
    1    4   -0.94575809E-01  0.14095622E-07
    2    4    0.14104036E-01 -0.11656282E-07
    3    4    0.20749668E-01 -0.39513791E-08
    4    4   -0.47578507E-01  0.74376545E-08

   -1    0    2
    1    1    0.55365833E-02  0.97896763E-08
    2    1    0.54168776E-03  0.67329171E-09
    3    1   -0.14732081E-02 -0.15386484E-10
    4    1    0.54169729E-03  0.59289867E-08
    1    2    0.14104030E-01  0.24055178E-07
    2    2   -0.73858538E-02 -0.44870008E-09
    3    2   -0.17152765E-02 -0.11271550E-07
    4    2    0.16963993E-02 -0.57948904E-08
    1    3   -0.13339072E-01 -0.50247938E-08
    2    3    0.88655362E-03 -0.36651531E-08
    3    3    0.35078186E-02 -0.14396906E-08
    4    3    0.88655538E-03 -0.32567331E-08
    1    4    0.14104017E-01 -0.47784012E-09
    2    4    0.16964001E-02  0.30181405E-08
    3    4   -0.17152841E-02 -0.57765215E-08
    4    4   -0.73858613E-02 -0.79014471E-08

   -1    1   -2
    1    1   -0.15839861E-02 -0.11471706E-08
    2    1   -0.94646821E-03  0.65034177E-08
    3    1    0.88656503E-03 -0.94255501E-08
    4    1    0.36322058E-02  0.94454599E-08
    1    2    0.88657787E-03 -0.23288195E-08
    2    2    0.20195304E-02 -0.11359973E-08
    3    2   -0.18145745E-02 -0.11473700E-08
    4    2    0.88654696E-03  0.10813730E-08
    1    3   -0.94646509E-03  0.72151528E-08
    2    3   -0.10051511E-02  0.77008888E-08
    3    3    0.20195299E-02  0.15487969E-08
    4    3   -0.94646363E-03 -0.98528723E-08
    1    4    0.36322060E-02 -0.11732912E-07
    2    4   -0.94646458E-03  0.23568174E-08
    3    4    0.88655422E-03  0.53543606E-08
    4    4   -0.15839848E-02  0.73434082E-09

   -1    1   -1
    1    1   -0.16632008E-02  0.63034167E-08
    2    1   -0.13339075E-01  0.68148206E-08
    3    1    0.20749685E-01 -0.18471622E-07
    4    1    0.20749668E-01  0.93671499E-08
    1    2   -0.13339070E-01 -0.19488076E-07
    2    2   -0.16631996E-02 -0.11130281E-07
    3    2    0.20749680E-01  0.30671174E-07
    4    2    0.20749682E-01 -0.98791152E-09
    1    3    0.36322040E-02  0.12498343E-07
    2    3    0.36322108E-02  0.17758298E-08
    3    3   -0.16632331E-02  0.60164947E-08
    4    3   -0.13339080E-01  0.17000071E-07
    1    4    0.36322005E-02 -0.55643161E-08
    2    4    0.36322015E-02 -0.16475436E-07
    3    4   -0.13339085E-01 -0.79177234E-08
    4    4   -0.16632219E-02 -0.11886579E-08

   -1    1    0
    1    1   -0.47578490E-01  0.13195828E-09
    2    1    0.14104019E-01 -0.40481473E-08
    3    1   -0.94575794E-01 -0.87550398E-08
    4    1    0.20749655E-01  0.59510862E-08
    1    2   -0.94575786E-01  0.20211465E-07
    2    2    0.34862163E+00  0.38522278E-08
    3    2   -0.12548853E+01  0.10369203E-07
    4    2   -0.94575770E-01  0.43956828E-08
    1    3    0.14104025E-01 -0.78671909E-08
    2    3   -0.14545238E+00 -0.31588674E-08
    3    3    0.34862165E+00 -0.55771566E-08
    4    3    0.14104005E-01  0.41717420E-08
    1    4    0.20749710E-01 -0.18687332E-07
    2    4    0.14104057E-01 -0.83032011E-08
    3    4   -0.94575849E-01 -0.18621324E-08
    4    4   -0.47578488E-01  0.15936244E-08

   -1    1    1
    1    1   -0.16632157E-02  0.75732760E-08
    2    1    0.36321975E-02 -0.31632743E-08
    3    1   -0.13339085E-01  0.40271756E-08
    4    1    0.36322056E-02  0.12139213E-07
    1    2    0.20749714E-01  0.93015040E-08
    2    2   -0.16632098E-02  0.83056490E-08
    3    2    0.20749699E-01  0.33541951E-08
    4    2   -0.13339098E-01 -0.69654229E-08
    1    3   -0.13339088E-01 -0.32692113E-08
    2    3    0.36322010E-02  0.87648758E-09
    3    3   -0.16632127E-02 -0.19177971E-07
    4    3    0.36322017E-02 -0.11002926E-07
    1    4    0.20749698E-01  0.16379075E-07
    2    4   -0.13339092E-01  0.13934627E-08
    3    4    0.20749688E-01 -0.25768356E-07
    4    4   -0.16632173E-02  0.32987633E-08

   -1    1    2
    1    1   -0.15839861E-02 -0.11471705E-08
    2    1   -0.94646821E-03  0.65034177E-08
    3    1    0.88656503E-03 -0.94255501E-08
    4    1    0.36322058E-02  0.94454599E-08
    1    2    0.88657787E-03 -0.23288195E-08
    2    2    0.20195304E-02 -0.11359973E-08
    3    2   -0.18145745E-02 -0.11473698E-08
    4    2    0.88654696E-03  0.10813730E-08
    1    3   -0.94646509E-03  0.72151528E-08
    2    3   -0.10051511E-02  0.77008888E-08
    3    3    0.20195299E-02  0.15487968E-08
    4    3   -0.94646363E-03 -0.98528723E-08
    1    4    0.36322060E-02 -0.11732912E-07
    2    4   -0.94646458E-03  0.23568174E-08
    3    4    0.88655422E-03  0.53543606E-08
    4    4   -0.15839848E-02  0.73434082E-09

   -1    2   -2
    1    1   -0.15839824E-02 -0.21694132E-08
    2    1   -0.94646413E-03 -0.23163706E-09
    3    1    0.36322065E-02 -0.22505210E-07
    4    1    0.88655995E-03 -0.57854632E-08
    1    2    0.88655007E-03 -0.91321259E-08
    2    2    0.20195337E-02 -0.16889058E-08
    3    2    0.88655998E-03  0.86115353E-08
    4    2   -0.18145731E-02 -0.27714342E-08
    1    3    0.36322022E-02  0.16172777E-07
    2    3   -0.94646196E-03  0.21698805E-08
    3    3   -0.15839897E-02  0.20397492E-08
    4    3    0.88656509E-03  0.40265209E-08
    1    4   -0.94647479E-03 -0.69701983E-08
    2    4   -0.10051441E-02  0.92596828E-09
    3    4   -0.94645780E-03  0.14588713E-07
    4    4    0.20195278E-02  0.18190990E-08

   -1    2   -1
    1    1   -0.73858638E-02 -0.99676234E-09
    2    1    0.16964196E-02 -0.51921845E-09
    3    1    0.14104009E-01  0.13766057E-07
    4    1   -0.17152910E-02 -0.88371565E-08
    1    2    0.16963973E-02 -0.46324011E-08
    2    2   -0.73858598E-02 -0.15139042E-10
    3    2    0.14104034E-01  0.61552078E-08
    4    2   -0.17152862E-02 -0.29966559E-08
    1    3    0.54169238E-03  0.19620466E-08
    2    3    0.54168066E-03 -0.15409970E-08
    3    3    0.55365814E-02 -0.50749594E-08
    4    3   -0.14732048E-02  0.20768020E-08
    1    4    0.88657355E-03  0.82214610E-08
    2    4    0.88656688E-03  0.30592165E-09
    3    4   -0.13339089E-01 -0.12005730E-07
    4    4    0.35078291E-02  0.60865821E-08

   -1    2    0
    1    1    0.35078160E-02  0.17073406E-08
    2    1    0.88654988E-03  0.50773991E-09
    3    1   -0.13339069E-01 -0.80247698E-08
    4    1    0.88655802E-03  0.17416157E-07
    1    2   -0.17152859E-02  0.17564919E-07
    2    2   -0.73858546E-02  0.15055349E-08
    3    2    0.14103995E-01 -0.27692318E-07
    4    2    0.16964215E-02  0.72324809E-08
    1    3   -0.14731857E-02 -0.12766005E-08
    2    3    0.54170065E-03  0.40857429E-08
    3    3    0.55365820E-02 -0.15989181E-08
    4    3    0.54167424E-03  0.47596679E-09
    1    4   -0.17152830E-02  0.38973889E-08
    2    4    0.16963732E-02 -0.56231692E-08
    3    4    0.14104057E-01 -0.12308430E-07
    4    4   -0.73858565E-02 -0.16136114E-08

   -1    2    1
    1    1    0.20195304E-02 -0.33812893E-08
    2    1   -0.10051470E-02 -0.16707609E-08
    3    1   -0.94647847E-03 -0.30845667E-08
    4    1   -0.94646266E-03  0.39784536E-08
    1    2   -0.18145730E-02  0.92644142E-09
    2    2    0.20195294E-02  0.27641248E-08
    3    2    0.88657338E-03  0.72279310E-08
    4    2    0.88655490E-03 -0.36835208E-08
    1    3    0.88656763E-03  0.14249848E-08
    2    3   -0.94647937E-03  0.19087102E-08
    3    3   -0.15839865E-02 -0.60629842E-08
    4    3    0.36322096E-02 -0.12105834E-07
    1    4    0.88655888E-03 -0.37892176E-08
    2    4   -0.94646353E-03 -0.36115216E-08
    3    4    0.36322076E-02  0.86375663E-08
    4    4   -0.15839840E-02  0.66793028E-08

   -1    3   -1
    1    1    0.55361991E-02 -0.14041872E-08
    2    1   -0.14731832E-02 -0.41460507E-08
    3    1   -0.14732117E-02  0.76360555E-08
    4    1   -0.14731872E-02 -0.46705290E-08
    1    2   -0.14731965E-02  0.52396888E-08
    2    2    0.55361832E-02  0.64875516E-09
    3    2   -0.14731934E-02  0.23569816E-08
    4    2   -0.14731947E-02 -0.84036757E-08
    1    3   -0.14731954E-02 -0.37846189E-08
    2    3   -0.14731935E-02  0.62739806E-08
    3    3    0.55361991E-02 -0.51816285E-08
    4    3   -0.14731923E-02  0.60975359E-08
    1    4   -0.14732069E-02  0.25484941E-08
    2    4   -0.14731854E-02 -0.19379965E-08
    3    4   -0.14731886E-02 -0.63304608E-08
    4    4    0.55361941E-02  0.59367793E-08

    0   -2    0
    1    1   -0.16885594E-02  0.78557708E-16
    2    1   -0.18145723E-02 -0.83975603E-09
    3    1    0.16964263E-02 -0.11394916E-08
    4    1    0.16963835E-02 -0.19921859E-08
    1    2   -0.18145723E-02  0.83975584E-09
    2    2   -0.16885691E-02  0.67456200E-16
    3    2    0.16964028E-02  0.11522562E-07
    4    2    0.16963804E-02  0.14356683E-08
    1    3    0.16964263E-02  0.11394914E-08
    2    3    0.16964028E-02 -0.11522562E-07
    3    3    0.99141915E-01  0.10906088E-15
    4    3   -0.14545238E+00 -0.91085382E-08
    1    4    0.16963835E-02  0.19921857E-08
    2    4    0.16963804E-02 -0.14356685E-08
    3    4   -0.14545238E+00  0.91085379E-08
    4    4    0.99141921E-01  0.11035400E-15

    0   -2    1
    1    1   -0.73858608E-02  0.37036068E-08
    2    1    0.88657712E-03  0.16364867E-08
    3    1    0.54169886E-03 -0.52458666E-08
    4    1    0.16963885E-02 -0.92625609E-08
    1    2   -0.17152768E-02  0.12472242E-07
    2    2    0.35078239E-02 -0.21169888E-08
    3    2   -0.14732016E-02 -0.70249470E-08
    4    2   -0.17152688E-02  0.11838806E-07
    1    3    0.14103985E-01 -0.22326623E-07
    2    3   -0.13339097E-01  0.43568001E-09
    3    3    0.55365853E-02 -0.43481074E-08
    4    3    0.14104028E-01 -0.34261836E-08
    1    4    0.16964218E-02  0.75644939E-08
    2    4    0.88655748E-03  0.58903873E-08
    3    4    0.54167023E-03  0.19865884E-08
    4    4   -0.73858617E-02  0.27612110E-08

    0   -2    2
    1    1    0.99141915E-01  0.71807979E-17
    2    1    0.16963926E-02 -0.42713936E-08
    3    1   -0.14545238E+00 -0.74507794E-08
    4    1    0.16964074E-02 -0.77543437E-08
    1    2    0.16963926E-02  0.42713936E-08
    2    2   -0.16885630E-02 -0.93094980E-17
    3    2    0.16964068E-02 -0.41330655E-08
    4    2   -0.18145685E-02 -0.55026739E-08
    1    3   -0.14545238E+00  0.74507794E-08
    2    3    0.16964068E-02  0.41330655E-08
    3    3    0.99141921E-01  0.61739699E-17
    4    3    0.16963973E-02  0.13970885E-07
    1    4    0.16964074E-02  0.77543437E-08
    2    4   -0.18145685E-02  0.55026739E-08
    3    4    0.16963973E-02 -0.13970885E-07
    4    4   -0.16885658E-02 -0.27692838E-17

    0   -1   -1
    1    1   -0.73858664E-02 -0.44228832E-09
    2    1   -0.17152804E-02  0.73619594E-08
    3    1    0.16963725E-02  0.70894601E-08
    4    1    0.14104052E-01 -0.88604834E-08
    1    2    0.88656277E-03 -0.30530806E-08
    2    2    0.35078347E-02 -0.53668379E-08
    3    2    0.88656107E-03  0.55289893E-08
    4    2   -0.13339091E-01 -0.50378671E-08
    1    3    0.16963995E-02 -0.21473267E-08
    2    3   -0.17152869E-02 -0.29276921E-08
    3    3   -0.73858651E-02  0.27396925E-08
    4    3    0.14104019E-01  0.17386812E-08
    1    4    0.54168178E-03 -0.10228533E-07
    2    4   -0.14731825E-02 -0.24058491E-08
    3    4    0.54169905E-03  0.22427906E-08
    4    4    0.55365836E-02  0.30700545E-08

    0   -1    0
    1    1   -0.47578492E-01  0.24798223E-08
    2    1    0.20749707E-01 -0.51282604E-08
    3    1    0.14104054E-01  0.15852858E-07
    4    1   -0.94575844E-01  0.13200195E-07
    1    2    0.20749662E-01  0.87924688E-08
    2    2   -0.47578478E-01  0.33414789E-08
    3    2    0.14104057E-01 -0.13170435E-07
    4    2   -0.94575847E-01 -0.15547625E-07
    1    3   -0.94575793E-01  0.34112467E-08
    2    3   -0.94575788E-01 -0.13362610E-07
    3    3    0.34862162E+00 -0.78566519E-08
    4    3   -0.12548854E+01 -0.16334012E-07
    1    4    0.14104014E-01  0.12562593E-08
    2    4    0.14104023E-01  0.68020824E-08
    3    4   -0.14545238E+00  0.71929615E-08
    4    4    0.34862164E+00  0.20344157E-08

    0   -1    1
    1    1    0.34862162E+00 -0.47893905E-08
    2    1    0.14104005E-01 -0.19529970E-07
    3    1   -0.14545238E+00 -0.80581240E-08
    4    1    0.14104020E-01 -0.63500446E-09
    1    2   -0.94575806E-01  0.19889918E-07
    2    2   -0.47578475E-01 -0.55656478E-08
    3    2    0.14104017E-01 -0.72815645E-08
    4    2    0.20749700E-01  0.12872992E-07
    1    3   -0.12548854E+01  0.98605462E-08
    2    3   -0.94575766E-01  0.17273201E-07
    3    3    0.34862165E+00  0.14659477E-08
    4    3   -0.94575830E-01  0.39914549E-08
    1    4   -0.94575763E-01  0.14945112E-08
    2    4    0.20749679E-01 -0.43060288E-07
    3    4    0.14104019E-01 -0.70690966E-08
    4    4   -0.47578502E-01  0.88883453E-08

    0   -1    2
    1    1    0.55365859E-02 -0.92372764E-08
    2    1   -0.14731924E-02 -0.80691061E-09
    3    1    0.54168091E-03 -0.12225737E-07
    4    1    0.54168821E-03  0.11308738E-07
    1    2   -0.13339073E-01 -0.19658591E-07
    2    2    0.35078232E-02  0.22292176E-08
    3    2    0.88654926E-03  0.65421828E-08
    4    2    0.88656499E-03  0.94585292E-08
    1    3    0.14104031E-01 -0.15972349E-07
    2    3   -0.17152864E-02  0.16630351E-07
    3    3   -0.73858643E-02  0.58821789E-08
    4    3    0.16963967E-02  0.41895053E-10
    1    4    0.14104012E-01 -0.44042882E-08
    2    4   -0.17152743E-02  0.48930837E-08
    3    4    0.16964057E-02 -0.98682339E-08
    4    4   -0.73858580E-02  0.11251274E-08

    0    0   -2
    1    1    0.99141916E-01  0.11000091E-15
    2    1    0.16963911E-02  0.61257458E-08
    3    1    0.16963923E-02  0.76730777E-08
    4    1   -0.14545238E+00  0.22580789E-08
    1    2    0.16963911E-02 -0.61257460E-08
    2    2   -0.16885724E-02  0.73467334E-16
    3    2   -0.18145694E-02 -0.61318466E-08
    4    2    0.16964014E-02 -0.21171630E-08
    1    3    0.16963923E-02 -0.76730779E-08
    2    3   -0.18145694E-02  0.61318465E-08
    3    3   -0.16885640E-02  0.68693998E-16
    4    3    0.16964056E-02  0.88786652E-08
    1    4   -0.14545238E+00 -0.22580793E-08
    2    4    0.16964014E-02  0.21171628E-08
    3    4    0.16964056E-02 -0.88786654E-08
    4    4    0.99141928E-01  0.93836286E-16

    0    0   -1
    1    1    0.34862162E+00  0.57327043E-08
    2    1   -0.94575806E-01 -0.14879767E-07
    3    1   -0.94575823E-01  0.10289037E-07
    4    1   -0.12548854E+01  0.15928854E-07
    1    2    0.14104021E-01  0.24802845E-07
    2    2   -0.47578469E-01 -0.41561615E-08
    3    2    0.20749690E-01  0.50930854E-08
    4    2   -0.94575809E-01  0.44634101E-08
    1    3    0.14104014E-01 -0.21519801E-07
    2    3    0.20749700E-01 -0.15616391E-07
    3    3   -0.47578492E-01  0.55915631E-08
    4    3   -0.94575774E-01 -0.54499406E-08
    1    4   -0.14545238E+00  0.35890659E-08
    2    4    0.14104035E-01 -0.15609962E-07
    3    4    0.14104042E-01 -0.75830833E-08
    4    4    0.34862164E+00 -0.71679430E-08

    0    0    0
    1    1    0.12938955E+01 -0.14769466E-16
    2    1   -0.12548854E+01  0.14499085E-07
    3    1   -0.12548854E+01 -0.14992853E-07
    4    1   -0.12548853E+01 -0.21263481E-08
    1    2   -0.12548854E+01 -0.14499085E-07
    2    2    0.12938954E+01 -0.18366646E-18
    3    2   -0.12548854E+01  0.17868827E-08
    4    2   -0.12548853E+01 -0.31572413E-07
    1    3   -0.12548854E+01  0.14992853E-07
    2    3   -0.12548854E+01 -0.17868827E-08
    3    3    0.12938955E+01  0.60306556E-17
    4    3   -0.12548853E+01 -0.35092511E-07
    1    4   -0.12548853E+01  0.21263481E-08
    2    4   -0.12548853E+01  0.31572413E-07
    3    4   -0.12548853E+01  0.35092511E-07
    4    4    0.12938956E+01  0.33390069E-17

    0    0    1
    1    1    0.34862162E+00 -0.57327043E-08
    2    1    0.14104021E-01 -0.24802845E-07
    3    1    0.14104014E-01  0.21519801E-07
    4    1   -0.14545238E+00 -0.35890659E-08
    1    2   -0.94575806E-01  0.14879767E-07
    2    2   -0.47578469E-01  0.41561615E-08
    3    2    0.20749700E-01  0.15616391E-07
    4    2    0.14104035E-01  0.15609962E-07
    1    3   -0.94575823E-01 -0.10289037E-07
    2    3    0.20749690E-01 -0.50930854E-08
    3    3   -0.47578492E-01 -0.55915631E-08
    4    3    0.14104042E-01  0.75830833E-08
    1    4   -0.12548854E+01 -0.15928854E-07
    2    4   -0.94575809E-01 -0.44634101E-08
    3    4   -0.94575774E-01  0.54499406E-08
    4    4    0.34862164E+00  0.71679430E-08

    0    0    2
    1    1    0.99141916E-01 -0.97419100E-16
    2    1    0.16963911E-02  0.61257460E-08
    3    1    0.16963923E-02  0.76730779E-08
    4    1   -0.14545238E+00  0.22580793E-08
    1    2    0.16963911E-02 -0.61257458E-08
    2    2   -0.16885724E-02 -0.73956165E-16
    3    2   -0.18145694E-02 -0.61318465E-08
    4    2    0.16964014E-02 -0.21171628E-08
    1    3    0.16963923E-02 -0.76730777E-08
    2    3   -0.18145694E-02  0.61318466E-08
    3    3   -0.16885640E-02 -0.78729499E-16
    4    3    0.16964056E-02  0.88786654E-08
    1    4   -0.14545238E+00 -0.22580789E-08
    2    4    0.16964014E-02  0.21171630E-08
    3    4    0.16964056E-02 -0.88786652E-08
    4    4    0.99141928E-01 -0.11358374E-15

    0    1   -2
    1    1    0.55365859E-02  0.92372764E-08
    2    1   -0.13339073E-01  0.19658591E-07
    3    1    0.14104031E-01  0.15972349E-07
    4    1    0.14104012E-01  0.44042882E-08
    1    2   -0.14731924E-02  0.80691061E-09
    2    2    0.35078232E-02 -0.22292176E-08
    3    2   -0.17152864E-02 -0.16630351E-07
    4    2   -0.17152743E-02 -0.48930837E-08
    1    3    0.54168091E-03  0.12225737E-07
    2    3    0.88654926E-03 -0.65421828E-08
    3    3   -0.73858643E-02 -0.58821789E-08
    4    3    0.16964057E-02  0.98682339E-08
    1    4    0.54168821E-03 -0.11308738E-07
    2    4    0.88656499E-03 -0.94585292E-08
    3    4    0.16963967E-02 -0.41895053E-10
    4    4   -0.73858580E-02 -0.11251274E-08

    0    1   -1
    1    1    0.34862162E+00  0.47893905E-08
    2    1   -0.94575806E-01 -0.19889918E-07
    3    1   -0.12548854E+01 -0.98605462E-08
    4    1   -0.94575763E-01 -0.14945112E-08
    1    2    0.14104005E-01  0.19529970E-07
    2    2   -0.47578475E-01  0.55656478E-08
    3    2   -0.94575766E-01 -0.17273201E-07
    4    2    0.20749679E-01  0.43060288E-07
    1    3   -0.14545238E+00  0.80581240E-08
    2    3    0.14104017E-01  0.72815645E-08
    3    3    0.34862165E+00 -0.14659477E-08
    4    3    0.14104019E-01  0.70690966E-08
    1    4    0.14104020E-01  0.63500446E-09
    2    4    0.20749700E-01 -0.12872992E-07
    3    4   -0.94575830E-01 -0.39914549E-08
    4    4   -0.47578502E-01 -0.88883453E-08

    0    1    0
    1    1   -0.47578492E-01 -0.24798224E-08
    2    1    0.20749662E-01 -0.87924688E-08
    3    1   -0.94575793E-01 -0.34112467E-08
    4    1    0.14104014E-01 -0.12562593E-08
    1    2    0.20749707E-01  0.51282604E-08
    2    2   -0.47578478E-01 -0.33414789E-08
    3    2   -0.94575788E-01  0.13362610E-07
    4    2    0.14104023E-01 -0.68020824E-08
    1    3    0.14104054E-01 -0.15852858E-07
    2    3    0.14104057E-01  0.13170435E-07
    3    3    0.34862162E+00  0.78566519E-08
    4    3   -0.14545238E+00 -0.71929615E-08
    1    4   -0.94575844E-01 -0.13200195E-07
    2    4   -0.94575847E-01  0.15547625E-07
    3    4   -0.12548854E+01  0.16334012E-07
    4    4    0.34862164E+00 -0.20344157E-08

    0    1    1
    1    1   -0.73858664E-02  0.44228831E-09
    2    1    0.88656277E-03  0.30530806E-08
    3    1    0.16963995E-02  0.21473267E-08
    4    1    0.54168178E-03  0.10228533E-07
    1    2   -0.17152804E-02 -0.73619594E-08
    2    2    0.35078347E-02  0.53668379E-08
    3    2   -0.17152869E-02  0.29276921E-08
    4    2   -0.14731825E-02  0.24058491E-08
    1    3    0.16963725E-02 -0.70894601E-08
    2    3    0.88656107E-03 -0.55289893E-08
    3    3   -0.73858651E-02 -0.27396925E-08
    4    3    0.54169905E-03 -0.22427906E-08
    1    4    0.14104052E-01  0.88604834E-08
    2    4   -0.13339091E-01  0.50378671E-08
    3    4    0.14104019E-01 -0.17386812E-08
    4    4    0.55365836E-02 -0.30700545E-08

    0    2   -2
    1    1    0.99141915E-01 -0.83324620E-17
    2    1    0.16963926E-02 -0.42713936E-08
    3    1   -0.14545238E+00 -0.74507794E-08
    4    1    0.16964074E-02 -0.77543437E-08
    1    2    0.16963926E-02  0.42713936E-08
    2    2   -0.16885630E-02 -0.93094974E-17
    3    2    0.16964068E-02 -0.41330655E-08
    4    2   -0.18145685E-02 -0.55026739E-08
    1    3   -0.14545238E+00  0.74507794E-08
    2    3    0.16964068E-02  0.41330655E-08
    3    3    0.99141921E-01  0.21687230E-16
    4    3    0.16963973E-02  0.13970885E-07
    1    4    0.16964074E-02  0.77543437E-08
    2    4   -0.18145685E-02  0.55026739E-08
    3    4    0.16963973E-02 -0.13970885E-07
    4    4   -0.16885658E-02 -0.27692845E-17

    0    2   -1
    1    1   -0.73858608E-02 -0.37036068E-08
    2    1   -0.17152768E-02 -0.12472242E-07
    3    1    0.14103985E-01  0.22326623E-07
    4    1    0.16964218E-02 -0.75644939E-08
    1    2    0.88657712E-03 -0.16364867E-08
    2    2    0.35078239E-02  0.21169888E-08
    3    2   -0.13339097E-01 -0.43568001E-09
    4    2    0.88655748E-03 -0.58903873E-08
    1    3    0.54169886E-03  0.52458666E-08
    2    3   -0.14732016E-02  0.70249470E-08
    3    3    0.55365853E-02  0.43481074E-08
    4    3    0.54167023E-03 -0.19865884E-08
    1    4    0.16963885E-02  0.92625609E-08
    2    4   -0.17152688E-02 -0.11838806E-07
    3    4    0.14104028E-01  0.34261836E-08
    4    4   -0.73858617E-02 -0.27612110E-08

    0    2    0
    1    1   -0.16885594E-02 -0.68865783E-16
    2    1   -0.18145723E-02 -0.83975584E-09
    3    1    0.16964263E-02 -0.11394914E-08
    4    1    0.16963835E-02 -0.19921857E-08
    1    2   -0.18145723E-02  0.83975603E-09
    2    2   -0.16885691E-02 -0.79967294E-16
    3    2    0.16964028E-02  0.11522562E-07
    4    2    0.16963804E-02  0.14356685E-08
    1    3    0.16964263E-02  0.11394916E-08
    2    3    0.16964028E-02 -0.11522562E-07
    3    3    0.99141915E-01 -0.98359145E-16
    4    3   -0.14545238E+00 -0.91085379E-08
    1    4    0.16963835E-02  0.19921859E-08
    2    4    0.16963804E-02 -0.14356683E-08
    3    4   -0.14545238E+00  0.91085382E-08
    4    4    0.99141921E-01 -0.97066033E-16

    1   -3    1
    1    1    0.55361991E-02  0.14041872E-08
    2    1   -0.14731965E-02 -0.52396888E-08
    3    1   -0.14731954E-02  0.37846189E-08
    4    1   -0.14732069E-02 -0.25484941E-08
    1    2   -0.14731832E-02  0.41460507E-08
    2    2    0.55361832E-02 -0.64875515E-09
    3    2   -0.14731935E-02 -0.62739806E-08
    4    2   -0.14731854E-02  0.19379965E-08
    1    3   -0.14732117E-02 -0.76360555E-08
    2    3   -0.14731934E-02 -0.23569816E-08
    3    3    0.55361991E-02  0.51816285E-08
    4    3   -0.14731886E-02  0.63304608E-08
    1    4   -0.14731872E-02  0.46705290E-08
    2    4   -0.14731947E-02  0.84036757E-08
    3    4   -0.14731923E-02 -0.60975359E-08
    4    4    0.55361941E-02 -0.59367793E-08

    1   -2   -1
    1    1    0.20195304E-02  0.33812893E-08
    2    1   -0.18145730E-02 -0.92644142E-09
    3    1    0.88656763E-03 -0.14249848E-08
    4    1    0.88655888E-03  0.37892176E-08
    1    2   -0.10051470E-02  0.16707609E-08
    2    2    0.20195294E-02 -0.27641247E-08
    3    2   -0.94647937E-03 -0.19087102E-08
    4    2   -0.94646353E-03  0.36115216E-08
    1    3   -0.94647847E-03  0.30845667E-08
    2    3    0.88657338E-03 -0.72279310E-08
    3    3   -0.15839865E-02  0.60629842E-08
    4    3    0.36322076E-02 -0.86375663E-08
    1    4   -0.94646266E-03 -0.39784536E-08
    2    4    0.88655490E-03  0.36835208E-08
    3    4    0.36322096E-02  0.12105834E-07
    4    4   -0.15839840E-02 -0.66793028E-08

    1   -2    0
    1    1    0.35078160E-02 -0.17073406E-08
    2    1   -0.17152859E-02 -0.17564919E-07
    3    1   -0.14731857E-02  0.12766005E-08
    4    1   -0.17152830E-02 -0.38973889E-08
    1    2    0.88654988E-03 -0.50773991E-09
    2    2   -0.73858546E-02 -0.15055349E-08
    3    2    0.54170065E-03 -0.40857429E-08
    4    2    0.16963732E-02  0.56231692E-08
    1    3   -0.13339069E-01  0.80247698E-08
    2    3    0.14103995E-01  0.27692318E-07
    3    3    0.55365820E-02  0.15989181E-08
    4    3    0.14104057E-01  0.12308430E-07
    1    4    0.88655802E-03 -0.17416157E-07
    2    4    0.16964215E-02 -0.72324809E-08
    3    4    0.54167424E-03 -0.47596679E-09
    4    4   -0.73858565E-02  0.16136115E-08

    1   -2    1
    1    1   -0.73858638E-02  0.99676236E-09
    2    1    0.16963973E-02  0.46324011E-08
    3    1    0.54169238E-03 -0.19620466E-08
    4    1    0.88657355E-03 -0.82214610E-08
    1    2    0.16964196E-02  0.51921845E-09
    2    2   -0.73858598E-02  0.15139037E-10
    3    2    0.54168066E-03  0.15409970E-08
    4    2    0.88656688E-03 -0.30592165E-09
    1    3    0.14104009E-01 -0.13766057E-07
    2    3    0.14104034E-01 -0.61552078E-08
    3    3    0.55365814E-02  0.50749594E-08
    4    3   -0.13339089E-01  0.12005730E-07
    1    4   -0.17152910E-02  0.88371565E-08
    2    4   -0.17152862E-02  0.29966559E-08
    3    4   -0.14732048E-02 -0.20768020E-08
    4    4    0.35078291E-02 -0.60865821E-08

    1   -2    2
    1    1   -0.15839824E-02  0.21694132E-08
    2    1    0.88655007E-03  0.91321259E-08
    3    1    0.36322022E-02 -0.16172777E-07
    4    1   -0.94647479E-03  0.69701983E-08
    1    2   -0.94646413E-03  0.23163706E-09
    2    2    0.20195337E-02  0.16889058E-08
    3    2   -0.94646196E-03 -0.21698805E-08
    4    2   -0.10051441E-02 -0.92596828E-09
    1    3    0.36322065E-02  0.22505210E-07
    2    3    0.88655998E-03 -0.86115353E-08
    3    3   -0.15839897E-02 -0.20397492E-08
    4    3   -0.94645780E-03 -0.14588713E-07
    1    4    0.88655995E-03  0.57854632E-08
    2    4   -0.18145731E-02  0.27714342E-08
    3    4    0.88656509E-03 -0.40265209E-08
    4    4    0.20195278E-02 -0.18190990E-08

    1   -1   -2
    1    1   -0.15839861E-02  0.11471705E-08
    2    1    0.88657787E-03  0.23288195E-08
    3    1   -0.94646509E-03 -0.72151528E-08
    4    1    0.36322060E-02  0.11732912E-07
    1    2   -0.94646821E-03 -0.65034177E-08
    2    2    0.20195304E-02  0.11359973E-08
    3    2   -0.10051511E-02 -0.77008888E-08
    4    2   -0.94646458E-03 -0.23568174E-08
    1    3    0.88656503E-03  0.94255501E-08
    2    3   -0.18145745E-02  0.11473698E-08
    3    3    0.20195299E-02 -0.15487969E-08
    4    3    0.88655422E-03 -0.53543606E-08
    1    4    0.36322058E-02 -0.94454599E-08
    2    4    0.88654696E-03 -0.10813730E-08
    3    4   -0.94646363E-03  0.98528723E-08
    4    4   -0.15839848E-02 -0.73434083E-09

    1   -1   -1
    1    1   -0.16632157E-02 -0.75732760E-08
    2    1    0.20749714E-01 -0.93015040E-08
    3    1   -0.13339088E-01  0.32692113E-08
    4    1    0.20749698E-01 -0.16379075E-07
    1    2    0.36321975E-02  0.31632743E-08
    2    2   -0.16632098E-02 -0.83056491E-08
    3    2    0.36322010E-02 -0.87648758E-09
    4    2   -0.13339092E-01 -0.13934627E-08
    1    3   -0.13339085E-01 -0.40271756E-08
    2    3    0.20749699E-01 -0.33541951E-08
    3    3   -0.16632127E-02  0.19177971E-07
    4    3    0.20749688E-01  0.25768356E-07
    1    4    0.36322056E-02 -0.12139213E-07
    2    4   -0.13339098E-01  0.69654229E-08
    3    4    0.36322017E-02  0.11002926E-07
    4    4   -0.16632173E-02 -0.32987633E-08

    1   -1    0
    1    1   -0.47578490E-01 -0.13195828E-09
    2    1   -0.94575786E-01 -0.20211465E-07
    3    1    0.14104025E-01  0.78671909E-08
    4    1    0.20749710E-01  0.18687332E-07
    1    2    0.14104019E-01  0.40481473E-08
    2    2    0.34862163E+00 -0.38522278E-08
    3    2   -0.14545238E+00  0.31588674E-08
    4    2    0.14104057E-01  0.83032011E-08
    1    3   -0.94575794E-01  0.87550398E-08
    2    3   -0.12548853E+01 -0.10369203E-07
    3    3    0.34862165E+00  0.55771566E-08
    4    3   -0.94575849E-01  0.18621324E-08
    1    4    0.20749655E-01 -0.59510862E-08
    2    4   -0.94575770E-01 -0.43956828E-08
    3    4    0.14104005E-01 -0.41717420E-08
    4    4   -0.47578488E-01 -0.15936244E-08

    1   -1    1
    1    1   -0.16632008E-02 -0.63034167E-08
    2    1   -0.13339070E-01  0.19488076E-07
    3    1    0.36322040E-02 -0.12498343E-07
    4    1    0.36322005E-02  0.55643161E-08
    1    2   -0.13339075E-01 -0.68148206E-08
    2    2   -0.16631996E-02  0.11130281E-07
    3    2    0.36322108E-02 -0.17758298E-08
    4    2    0.36322015E-02  0.16475436E-07
    1    3    0.20749685E-01  0.18471622E-07
    2    3    0.20749680E-01 -0.30671174E-07
    3    3   -0.16632331E-02 -0.60164947E-08
    4    3   -0.13339085E-01  0.79177234E-08
    1    4    0.20749668E-01 -0.93671499E-08
    2    4    0.20749682E-01  0.98791152E-09
    3    4   -0.13339080E-01 -0.17000071E-07
    4    4   -0.16632219E-02  0.11886579E-08

    1   -1    2
    1    1   -0.15839861E-02  0.11471705E-08
    2    1    0.88657787E-03  0.23288195E-08
    3    1   -0.94646509E-03 -0.72151528E-08
    4    1    0.36322060E-02  0.11732912E-07
    1    2   -0.94646821E-03 -0.65034177E-08
    2    2    0.20195304E-02  0.11359973E-08
    3    2   -0.10051511E-02 -0.77008888E-08
    4    2   -0.94646458E-03 -0.23568174E-08
    1    3    0.88656503E-03  0.94255501E-08
    2    3   -0.18145745E-02  0.11473700E-08
    3    3    0.20195299E-02 -0.15487969E-08
    4    3    0.88655422E-03 -0.53543606E-08
    1    4    0.36322058E-02 -0.94454599E-08
    2    4    0.88654696E-03 -0.10813730E-08
    3    4   -0.94646363E-03  0.98528723E-08
    4    4   -0.15839848E-02 -0.73434082E-09

    1    0   -2
    1    1    0.55365833E-02 -0.97896763E-08
    2    1    0.14104030E-01 -0.24055178E-07
    3    1   -0.13339072E-01  0.50247938E-08
    4    1    0.14104017E-01  0.47784012E-09
    1    2    0.54168776E-03 -0.67329171E-09
    2    2   -0.73858538E-02  0.44870008E-09
    3    2    0.88655362E-03  0.36651531E-08
    4    2    0.16964001E-02 -0.30181405E-08
    1    3   -0.14732081E-02  0.15386484E-10
    2    3   -0.17152765E-02  0.11271550E-07
    3    3    0.35078186E-02  0.14396906E-08
    4    3   -0.17152841E-02  0.57765215E-08
    1    4    0.54169729E-03 -0.59289867E-08
    2    4    0.16963993E-02  0.57948904E-08
    3    4    0.88655538E-03  0.32567331E-08
    4    4   -0.73858613E-02  0.79014471E-08

    1    0   -1
    1    1    0.34862165E+00  0.50261372E-08
    2    1   -0.12548854E+01  0.37670635E-07
    3    1   -0.94575771E-01  0.23267637E-07
    4    1   -0.94575809E-01 -0.14095622E-07
    1    2   -0.14545238E+00 -0.12776120E-07
    2    2    0.34862164E+00 -0.33779054E-08
    3    2    0.14104029E-01 -0.19355291E-08
    4    2    0.14104036E-01  0.11656282E-07
    1    3    0.14104028E-01 -0.74424946E-08
    2    3   -0.94575799E-01  0.84088678E-08
    3    3   -0.47578485E-01  0.57893289E-08
    4    3    0.20749668E-01  0.39513791E-08
    1    4    0.14104022E-01 -0.84806069E-09
    2    4   -0.94575804E-01 -0.22155335E-07
    3    4    0.20749678E-01 -0.25201655E-07
    4    4   -0.47578507E-01 -0.74376545E-08

    1    0    0
    1    1   -0.47578466E-01 -0.11961384E-08
    2    1   -0.94575813E-01 -0.10706148E-08
    3    1    0.20749686E-01 -0.31896429E-07
    4    1    0.14104022E-01 -0.14027025E-07
    1    2    0.14104046E-01  0.17728000E-07
    2    2    0.34862161E+00  0.89750977E-08
    3    2    0.14104021E-01 -0.97356030E-08
    4    2   -0.14545238E+00 -0.96759703E-08
    1    3    0.20749694E-01  0.27803164E-07
    2    3   -0.94575854E-01  0.22419667E-07
    3    3   -0.47578494E-01 -0.17399781E-08
    4    3    0.14104030E-01  0.17099758E-07
    1    4   -0.94575779E-01 -0.81796427E-08
    2    4   -0.12548854E+01  0.11422427E-07
    3    4   -0.94575770E-01 -0.43053994E-08
    4    4    0.34862164E+00 -0.60385740E-08

    1    0    1
    1    1   -0.73858579E-02 -0.38056488E-10
    2    1    0.16964057E-02 -0.28062526E-08
    3    1    0.88656693E-03  0.68890321E-08
    4    1    0.54168535E-03  0.24181336E-08
    1    2    0.16963942E-02  0.45846439E-08
    2    2   -0.73858580E-02  0.33251100E-08
    3    2    0.88657912E-03  0.48927914E-08
    4    2    0.54168425E-03  0.48345091E-08
    1    3   -0.17152942E-02 -0.20798685E-07
    2    3   -0.17152922E-02 -0.64352598E-08
    3    3    0.35078244E-02 -0.31068693E-08
    4    3   -0.14731872E-02  0.24700592E-08
    1    4    0.14104044E-01  0.28430489E-07
    2    4    0.14104036E-01 -0.17755255E-08
    3    4   -0.13339105E-01 -0.13431783E-07
    4    4    0.55365783E-02 -0.18091179E-09

    1    1   -3
    1    1    0.55361991E-02  0.14041872E-08
    2    1   -0.14731965E-02 -0.52396888E-08
    3    1   -0.14731954E-02  0.37846189E-08
    4    1   -0.14732069E-02 -0.25484941E-08
    1    2   -0.14731832E-02  0.41460507E-08
    2    2    0.55361832E-02 -0.64875515E-09
    3    2   -0.14731935E-02 -0.62739806E-08
    4    2   -0.14731854E-02  0.19379965E-08
    1    3   -0.14732117E-02 -0.76360555E-08
    2    3   -0.14731934E-02 -0.23569816E-08
    3    3    0.55361991E-02  0.51816285E-08
    4    3   -0.14731886E-02  0.63304608E-08
    1    4   -0.14731872E-02  0.46705290E-08
    2    4   -0.14731947E-02  0.84036757E-08
    3    4   -0.14731923E-02 -0.60975358E-08
    4    4    0.55361941E-02 -0.59367793E-08

    1    1   -2
    1    1    0.55365804E-02 -0.28178596E-08
    2    1    0.14104027E-01 -0.10735985E-07
    3    1    0.14104011E-01  0.28576367E-08
    4    1   -0.13339060E-01 -0.23065292E-07
    1    2    0.54168544E-03 -0.52066592E-08
    2    2   -0.73858566E-02  0.13758756E-08
    3    2    0.16964057E-02  0.40139919E-08
    4    2    0.88656566E-03  0.78321877E-08
    1    3    0.54169669E-03  0.28857802E-08
    2    3    0.16963973E-02 -0.49304978E-08
    3    3   -0.73858623E-02  0.29483546E-08
    4    3    0.88653646E-03  0.32070216E-08
    1    4   -0.14731930E-02 -0.58440211E-08
    2    4   -0.17152786E-02  0.10893315E-07
    3    4   -0.17152797E-02  0.65188335E-08
    4    4    0.35078253E-02 -0.15059641E-08

    1    1   -1
    1    1   -0.16632195E-02 -0.21407951E-08
    2    1    0.20749685E-01  0.43434807E-09
    3    1    0.20749667E-01 -0.24427419E-07
    4    1   -0.13339106E-01  0.72160104E-08
    1    2    0.36322013E-02 -0.17059390E-08
    2    2   -0.16632063E-02  0.25798530E-08
    3    2   -0.13339083E-01  0.12842466E-07
    4    2    0.36322077E-02  0.42874841E-08
    1    3    0.36322101E-02  0.73445705E-08
    2    3   -0.13339062E-01 -0.67460410E-08
    3    3   -0.16632135E-02  0.83966046E-08
    4    3    0.36322047E-02 -0.72846259E-08
    1    4   -0.13339076E-01  0.24105092E-07
    2    4    0.20749698E-01 -0.45376859E-07
    3    4    0.20749674E-01  0.14703476E-08
    4    4   -0.16632162E-02 -0.88349444E-08

    1    1    0
    1    1    0.35078204E-02  0.58844933E-08
    2    1   -0.17152995E-02  0.28748411E-08
    3    1   -0.17152995E-02  0.50099999E-08
    4    1   -0.14731963E-02  0.83655195E-08
    1    2    0.88655583E-03  0.46424970E-08
    2    2   -0.73858559E-02 -0.60465466E-08
    3    2    0.16963993E-02  0.25233439E-08
    4    2    0.54168407E-03  0.37990447E-08
    1    3    0.88657183E-03  0.11161834E-07
    2    3    0.16963877E-02  0.38498224E-09
    3    3   -0.73858629E-02 -0.56499622E-08
    4    3    0.54169664E-03 -0.23486552E-08
    1    4   -0.13339089E-01 -0.21037093E-07
    2    4    0.14104052E-01 -0.54398820E-08
    3    4    0.14104053E-01 -0.20388776E-07
    4    4    0.55365852E-02  0.58121709E-08

    1    1    1
    1    1    0.55361991E-02  0.14041872E-08
    2    1   -0.14731965E-02 -0.52396888E-08
    3    1   -0.14731954E-02  0.37846189E-08
    4    1   -0.14732069E-02 -0.25484941E-08
    1    2   -0.14731832E-02  0.41460508E-08
    2    2    0.55361832E-02 -0.64875514E-09
    3    2   -0.14731935E-02 -0.62739806E-08
    4    2   -0.14731854E-02  0.19379965E-08
    1    3   -0.14732117E-02 -0.76360555E-08
    2    3   -0.14731934E-02 -0.23569816E-08
    3    3    0.55361991E-02  0.51816285E-08
    4    3   -0.14731886E-02  0.63304608E-08
    1    4   -0.14731872E-02  0.46705290E-08
    2    4   -0.14731947E-02  0.84036757E-08
    3    4   -0.14731923E-02 -0.60975359E-08
    4    4    0.55361941E-02 -0.59367793E-08

    1    2   -2
    1    1   -0.15839824E-02  0.21694132E-08
    2    1    0.88655007E-03  0.91321259E-08
    3    1    0.36322022E-02 -0.16172777E-07
    4    1   -0.94647479E-03  0.69701983E-08
    1    2   -0.94646413E-03  0.23163707E-09
    2    2    0.20195337E-02  0.16889058E-08
    3    2   -0.94646196E-03 -0.21698805E-08
    4    2   -0.10051441E-02 -0.92596827E-09
    1    3    0.36322065E-02  0.22505210E-07
    2    3    0.88655998E-03 -0.86115353E-08
    3    3   -0.15839897E-02 -0.20397492E-08
    4    3   -0.94645780E-03 -0.14588713E-07
    1    4    0.88655995E-03  0.57854631E-08
    2    4   -0.18145731E-02  0.27714342E-08
    3    4    0.88656509E-03 -0.40265208E-08
    4    4    0.20195278E-02 -0.18190990E-08

    1    2   -1
    1    1    0.20195304E-02  0.33812892E-08
    2    1   -0.18145730E-02 -0.92644128E-09
    3    1    0.88656763E-03 -0.14249847E-08
    4    1    0.88655888E-03  0.37892176E-08
    1    2   -0.10051470E-02  0.16707609E-08
    2    2    0.20195294E-02 -0.27641248E-08
    3    2   -0.94647937E-03 -0.19087102E-08
    4    2   -0.94646353E-03  0.36115216E-08
    1    3   -0.94647847E-03  0.30845668E-08
    2    3    0.88657338E-03 -0.72279310E-08
    3    3   -0.15839865E-02  0.60629842E-08
    4    3    0.36322076E-02 -0.86375663E-08
    1    4   -0.94646266E-03 -0.39784535E-08
    2    4    0.88655490E-03  0.36835208E-08
    3    4    0.36322096E-02  0.12105834E-07
    4    4   -0.15839840E-02 -0.66793028E-08

    2   -2   -2
    1    1    0.32581209E-02 -0.13529800E-16
    2    1   -0.10051425E-02  0.33223144E-08
    3    1   -0.10051467E-02 -0.41261364E-08
    4    1   -0.10051522E-02  0.36322047E-08
    1    2   -0.10051425E-02 -0.33223144E-08
    2    2    0.32581094E-02  0.88146699E-18
    3    2   -0.10051447E-02 -0.63934023E-08
    4    2   -0.10051507E-02 -0.27129991E-08
    1    3   -0.10051467E-02  0.41261364E-08
    2    3   -0.10051447E-02  0.63934023E-08
    3    3    0.32581177E-02 -0.35359909E-17
    4    3   -0.10051444E-02 -0.62417682E-08
    1    4   -0.10051522E-02 -0.36322047E-08
    2    4   -0.10051507E-02  0.27129991E-08
    3    4   -0.10051444E-02  0.62417682E-08
    4    4    0.32581143E-02 -0.27087299E-17

    2   -2   -1
    1    1    0.20195291E-02  0.20874910E-08
    2    1    0.88657159E-03 -0.25208711E-08
    3    1    0.88656032E-03 -0.32153336E-08
    4    1   -0.18145692E-02 -0.16400981E-07
    1    2   -0.94646945E-03  0.72511413E-08
    2    2   -0.15839750E-02 -0.51995334E-08
    3    2    0.36321904E-02 -0.53003947E-08
    4    2    0.88655501E-03 -0.27377078E-09
    1    3   -0.94647305E-03  0.16091907E-08
    2    3    0.36322021E-02 -0.52896101E-08
    3    3   -0.15839907E-02  0.51095770E-08
    4    3    0.88657002E-03  0.93606572E-08
    1    4   -0.10051438E-02 -0.59848348E-08
    2    4   -0.94646550E-03  0.21846311E-08
    3    4   -0.94646399E-03  0.13151387E-07
    4    4    0.20195259E-02 -0.19974403E-08

    2   -2    0
    1    1   -0.16885640E-02  0.80080918E-17
    2    1    0.16963889E-02 -0.43580716E-08
    3    1    0.16964079E-02 -0.38472152E-09
    4    1   -0.18145771E-02  0.11697084E-08
    1    2    0.16963889E-02  0.43580716E-08
    2    2    0.99141920E-01  0.25245860E-17
    3    2   -0.14545238E+00  0.48757515E-08
    4    2    0.16964302E-02  0.41257681E-08
    1    3    0.16964079E-02  0.38472153E-09
    2    3   -0.14545238E+00 -0.48757515E-08
    3    3    0.99141927E-01 -0.54727307E-17
    4    3    0.16963823E-02  0.20846660E-08
    1    4   -0.18145771E-02 -0.11697084E-08
    2    4    0.16964302E-02 -0.41257681E-08
    3    4    0.16963823E-02 -0.20846659E-08
    4    4   -0.16885749E-02  0.34693442E-17

    2   -2    1
    1    1    0.20195291E-02 -0.20874910E-08
    2    1   -0.94646945E-03 -0.72511413E-08
    3    1   -0.94647305E-03 -0.16091907E-08
    4    1   -0.10051438E-02  0.59848348E-08
    1    2    0.88657159E-03  0.25208711E-08
    2    2   -0.15839750E-02  0.51995334E-08
    3    2    0.36322021E-02  0.52896101E-08
    4    2   -0.94646550E-03 -0.21846311E-08
    1    3    0.88656032E-03  0.32153337E-08
    2    3    0.36321904E-02  0.53003946E-08
    3    3   -0.15839907E-02 -0.51095770E-08
    4    3   -0.94646399E-03 -0.13151387E-07
    1    4   -0.18145692E-02  0.16400981E-07
    2    4    0.88655501E-03  0.27377079E-09
    3    4    0.88657002E-03 -0.93606572E-08
    4    4    0.20195259E-02  0.19974403E-08

    2   -2    2
    1    1    0.32581209E-02 -0.12620637E-16
    2    1   -0.10051425E-02  0.33223144E-08
    3    1   -0.10051467E-02 -0.41261363E-08
    4    1   -0.10051522E-02  0.36322047E-08
    1    2   -0.10051425E-02 -0.33223144E-08
    2    2    0.32581094E-02 -0.96749458E-17
    3    2   -0.10051447E-02 -0.63934023E-08
    4    2   -0.10051507E-02 -0.27129991E-08
    1    3   -0.10051467E-02  0.41261364E-08
    2    3   -0.10051447E-02  0.63934023E-08
    3    3    0.32581177E-02 -0.14092395E-16
    4    3   -0.10051444E-02 -0.62417682E-08
    1    4   -0.10051522E-02 -0.36322047E-08
    2    4   -0.10051507E-02  0.27129991E-08
    3    4   -0.10051444E-02  0.62417682E-08
    4    4    0.32581143E-02 -0.17995690E-17

    2   -1   -2
    1    1   -0.15839894E-02  0.36866116E-08
    2    1    0.36322052E-02  0.84860514E-09
    3    1   -0.94646385E-03 -0.67450579E-08
    4    1    0.88656568E-03 -0.91861364E-08
    1    2    0.36321980E-02 -0.77844501E-08
    2    2   -0.15839751E-02 -0.13277559E-08
    3    2   -0.94646947E-03 -0.66148793E-08
    4    2    0.88655814E-03  0.70651240E-08
    1    3    0.88655637E-03  0.13457655E-07
    2    3    0.88657318E-03 -0.40347834E-08
    3    3    0.20195266E-02 -0.90384108E-09
    4    3   -0.18145738E-02  0.12242256E-07
    1    4   -0.94647378E-03 -0.41959597E-08
    2    4   -0.94646411E-03  0.18507820E-08
    3    4   -0.10051482E-02  0.10842518E-07
    4    4    0.20195273E-02 -0.14548255E-08

    2   -1   -1
    1    1   -0.73858683E-02  0.10625782E-09
    2    1    0.14104037E-01 -0.73060445E-08
    3    1    0.16963884E-02  0.99954780E-08
    4    1   -0.17152912E-02 -0.64115466E-10
    1    2    0.54168250E-03 -0.59877245E-08
    2    2    0.55365809E-02 -0.36316435E-09
    3    2    0.54169054E-03  0.33516516E-08
    4    2   -0.14731903E-02 -0.34606700E-08
    1    3    0.16964020E-02  0.22412842E-08
    2    3    0.14104023E-01 -0.30829438E-08
    3    3   -0.73858620E-02  0.30812283E-09
    4    3   -0.17152891E-02 -0.54252848E-08
    1    4    0.88656388E-03  0.75472719E-08
    2    4   -0.13339064E-01  0.79420118E-08
    3    4    0.88655360E-03 -0.43990665E-08
    4    4    0.35078362E-02 -0.51848152E-10

    2   -1    0
    1    1    0.35078296E-02 -0.41868849E-08
    2    1   -0.13339098E-01  0.26652052E-08
    3    1    0.88657654E-03 -0.15458814E-07
    4    1    0.88657001E-03  0.10010612E-07
    1    2   -0.14731964E-02  0.62909159E-08
    2    2    0.55365785E-02  0.93775646E-08
    3    2    0.54167471E-03 -0.24155749E-08
    4    2    0.54168397E-03  0.33828568E-08
    1    3   -0.17152970E-02  0.43680284E-08
    2    3    0.14104042E-01  0.72175459E-08
    3    3   -0.73858621E-02 -0.61902691E-09
    4    3    0.16964092E-02  0.22866145E-08
    1    4   -0.17152874E-02 -0.69416733E-08
    2    4    0.14104008E-01  0.47858800E-08
    3    4    0.16964112E-02 -0.10364285E-07
    4    4   -0.73858592E-02 -0.45715891E-08

    2   -1    1
    1    1    0.20195267E-02 -0.21826111E-08
    2    1   -0.94647230E-03  0.29917876E-10
    3    1   -0.10051445E-02  0.50884409E-08
    4    1   -0.94646111E-03 -0.12434550E-08
    1    2    0.88657695E-03  0.11518339E-08
    2    2   -0.15839731E-02 -0.65716190E-09
    3    2   -0.94646425E-03  0.30255814E-08
    4    2    0.36322010E-02  0.69143670E-08
    1    3   -0.18145784E-02 -0.12025457E-07
    2    3    0.88656096E-03 -0.11107174E-07
    3    3    0.20195236E-02 -0.19802585E-08
    4    3    0.88656468E-03  0.67522509E-08
    1    4    0.88655149E-03  0.23972903E-09
    2    4    0.36322047E-02 -0.92174799E-08
    3    4   -0.94646623E-03  0.61004383E-08
    4    4   -0.15839878E-02  0.48193418E-08

    2    0   -2
    1    1    0.99141919E-01 -0.10064796E-17
    2    1   -0.14545238E+00  0.66686677E-08
    3    1    0.16963990E-02 -0.49755244E-09
    4    1    0.16964004E-02 -0.65800702E-08
    1    2   -0.14545238E+00 -0.66686677E-08
    2    2    0.99141928E-01  0.12673219E-16
    3    2    0.16964010E-02  0.73033025E-08
    4    2    0.16964053E-02  0.38817827E-08
    1    3    0.16963990E-02  0.49755245E-09
    2    3    0.16964010E-02 -0.73033025E-08
    3    3   -0.16885627E-02 -0.92590549E-17
    4    3   -0.18145788E-02  0.82205779E-08
    1    4    0.16964004E-02  0.65800702E-08
    2    4    0.16964053E-02 -0.38817828E-08
    3    4   -0.18145788E-02 -0.82205779E-08
    4    4   -0.16885767E-02 -0.54518527E-17

    2    0   -1
    1    1   -0.73858609E-02  0.11391769E-08
    2    1    0.14104034E-01 -0.15787840E-07
    3    1   -0.17152975E-02  0.18049641E-08
    4    1    0.16963989E-02  0.66054521E-08
    1    2    0.54168955E-03 -0.27927476E-08
    2    2    0.55365794E-02 -0.38014966E-08
    3    2   -0.14731905E-02 -0.52418465E-09
    4    2    0.54167912E-03  0.77934693E-09
    1    3    0.88657322E-03  0.48169323E-08
    2    3   -0.13339081E-01 -0.76151530E-08
    3    3    0.35078304E-02  0.40727150E-08
    4    3    0.88656014E-03  0.44861723E-08
    1    4    0.16964034E-02  0.11361682E-07
    2    4    0.14104019E-01 -0.65721210E-08
    3    4   -0.17152931E-02 -0.11291992E-08
    4    4   -0.73858621E-02 -0.14099933E-08

    2    0    0
    1    1   -0.16885626E-02 -0.75652030E-16
    2    1    0.16964083E-02 -0.54570758E-08
    3    1   -0.18145735E-02  0.64550826E-08
    4    1    0.16963969E-02  0.10628109E-07
    1    2    0.16964083E-02  0.54570760E-08
    2    2    0.99141913E-01 -0.10112690E-15
    3    2    0.16964029E-02 -0.54431575E-08
    4    2   -0.14545239E+00 -0.50943508E-08
    1    3   -0.18145735E-02 -0.64550824E-08
    2    3    0.16964029E-02  0.54431577E-08
    3    3   -0.16885718E-02 -0.69347543E-16
    4    3    0.16963987E-02 -0.14668938E-08
    1    4    0.16963969E-02 -0.10628108E-07
    2    4   -0.14545239E+00  0.50943512E-08
    3    4    0.16963987E-02  0.14668940E-08
    4    4    0.99141929E-01 -0.10653670E-15

    2    1   -2
    1    1   -0.15839894E-02 -0.36866116E-08
    2    1    0.36321980E-02  0.77844501E-08
    3    1    0.88655637E-03 -0.13457655E-07
    4    1   -0.94647378E-03  0.41959597E-08
    1    2    0.36322052E-02 -0.84860514E-09
    2    2   -0.15839751E-02  0.13277559E-08
    3    2    0.88657318E-03  0.40347835E-08
    4    2   -0.94646411E-03 -0.18507820E-08
    1    3   -0.94646385E-03  0.67450579E-08
    2    3   -0.94646947E-03  0.66148793E-08
    3    3    0.20195266E-02  0.90384106E-09
    4    3   -0.10051482E-02 -0.10842518E-07
    1    4    0.88656568E-03  0.91861364E-08
    2    4    0.88655814E-03 -0.70651240E-08
    3    4   -0.18145738E-02 -0.12242256E-07
    4    4    0.20195273E-02  0.14548255E-08

    2    1   -1
    1    1    0.20195267E-02  0.21826110E-08
    2    1    0.88657695E-03 -0.11518339E-08
    3    1   -0.18145784E-02  0.12025458E-07
    4    1    0.88655149E-03 -0.23972902E-09
    1    2   -0.94647230E-03 -0.29917853E-10
    2    2   -0.15839731E-02  0.65716191E-09
    3    2    0.88656096E-03  0.11107174E-07
    4    2    0.36322047E-02  0.92174799E-08
    1    3   -0.10051445E-02 -0.50884408E-08
    2    3   -0.94646425E-03 -0.30255814E-08
    3    3    0.20195236E-02  0.19802584E-08
    4    3   -0.94646623E-03 -0.61004383E-08
    1    4   -0.94646111E-03  0.12434550E-08
    2    4    0.36322010E-02 -0.69143670E-08
    3    4    0.88656468E-03 -0.67522509E-08
    4    4   -0.15839878E-02 -0.48193418E-08

    2    2   -2
    1    1    0.32581209E-02 -0.24086202E-16
    2    1   -0.10051425E-02  0.33223144E-08
    3    1   -0.10051467E-02 -0.41261363E-08
    4    1   -0.10051522E-02  0.36322047E-08
    1    2   -0.10051425E-02 -0.33223144E-08
    2    2    0.32581094E-02 -0.96749458E-17
    3    2   -0.10051447E-02 -0.63934023E-08
    4    2   -0.10051507E-02 -0.27129990E-08
    1    3   -0.10051467E-02  0.41261364E-08
    2    3   -0.10051447E-02  0.63934023E-08
    3    3    0.32581177E-02 -0.26268302E-17
    4    3   -0.10051444E-02 -0.62417682E-08
    1    4   -0.10051522E-02 -0.36322047E-08
    2    4   -0.10051507E-02  0.27129991E-08
    3    4   -0.10051444E-02  0.62417682E-08
    4    4    0.32581143E-02 -0.17995690E-17

    3   -1   -1
    1    1    0.55361991E-02 -0.14041872E-08
    2    1   -0.14731832E-02 -0.41460507E-08
    3    1   -0.14732117E-02  0.76360555E-08
    4    1   -0.14731872E-02 -0.46705291E-08
    1    2   -0.14731965E-02  0.52396888E-08
    2    2    0.55361832E-02  0.64875515E-09
    3    2   -0.14731934E-02  0.23569816E-08
    4    2   -0.14731947E-02 -0.84036757E-08
    1    3   -0.14731954E-02 -0.37846188E-08
    2    3   -0.14731935E-02  0.62739806E-08
    3    3    0.55361991E-02 -0.51816285E-08
    4    3   -0.14731923E-02  0.60975359E-08
    1    4   -0.14732069E-02  0.25484941E-08
    2    4   -0.14731854E-02 -0.19379965E-08
    3    4   -0.14731886E-02 -0.63304608E-08
    4    4    0.55361941E-02  0.59367793E-08

   -3    1    1
    1    1    0.95962945E-08 -0.11245358E-07  0.30507214E-08 -0.25055420E-07 -0.10223492E-07  0.20136885E-08
    2    1   -0.10503363E-02  0.15455055E-07  0.22619881E-03  0.19982784E-08 -0.22620197E-03 -0.91672850E-08
    3    1   -0.22620215E-03 -0.83014486E-08  0.10502887E-02  0.91672823E-08 -0.22621170E-03  0.11608546E-07
    4    1   -0.22621877E-03  0.22213742E-08  0.22623369E-03  0.11148035E-07 -0.10503103E-02  0.48384678E-08
    1    2   -0.10502886E-02 -0.27626538E-07 -0.22623327E-03 -0.16344477E-07  0.22624189E-03 -0.18071069E-07
    2    2    0.23431018E-07  0.25914486E-07  0.36893401E-07 -0.31768608E-08 -0.21039119E-07  0.22548549E-07
    3    2   -0.22624725E-03  0.11932920E-07 -0.22622869E-03  0.16906247E-07  0.10502909E-02 -0.18917978E-07
    4    2   -0.22620818E-03 -0.18635176E-07 -0.10503153E-02 -0.82661095E-08  0.22621672E-03  0.13812917E-07
    1    3    0.22619918E-03  0.26738569E-07  0.10502952E-02  0.11049993E-08  0.22619950E-03 -0.17428686E-07
    2    3    0.22619634E-03 -0.94890556E-08  0.22619379E-03 -0.13115502E-07  0.10503468E-02  0.13255164E-07
    3    3    0.35684123E-07 -0.15949014E-07  0.26611507E-07 -0.17355180E-07 -0.10609398E-07 -0.24773296E-07
    4    3    0.10503013E-02 -0.42481297E-08  0.22621652E-03  0.34270625E-07  0.22621734E-03  0.13582162E-07
    1    4    0.22618965E-03 -0.10715140E-07 -0.22618269E-03  0.11935418E-07 -0.10503143E-02  0.13067034E-07
    2    4    0.22620595E-03 -0.71705297E-08 -0.10503325E-02 -0.24325014E-08 -0.22620624E-03 -0.10578382E-07
    3    4    0.10503125E-02  0.13546615E-07 -0.22619034E-03  0.17667987E-07 -0.22620957E-03  0.36216759E-07
    4    4    0.93414711E-08  0.79589087E-08 -0.19086628E-07 -0.29082372E-07  0.83283900E-09 -0.30777012E-07

   -2   -2    2
    1    1   -0.22551405E-16 -0.24715255E-23 -0.10408341E-16  0.88758267E-24 -0.15612511E-16  0.44418068E-24
    2    1   -0.24574984E-07  0.18236366E-08 -0.36292054E-04 -0.28602608E-07  0.36252083E-04  0.35768534E-07
    3    1    0.36326214E-04 -0.18738517E-07  0.30344915E-09  0.32932427E-09  0.36303115E-04 -0.21142262E-07
    4    1    0.36261268E-04 -0.17914252E-09 -0.36281690E-04  0.16944815E-07  0.65527613E-08 -0.80007309E-08
    1    2    0.24574984E-07  0.18236366E-08  0.36292054E-04 -0.28602608E-07 -0.36252083E-04  0.35768534E-07
    2    2   -0.53125906E-16  0.97573159E-24 -0.40549161E-16 -0.26596404E-23  0.58546917E-17 -0.18694211E-23
    3    2    0.36266666E-04 -0.42695475E-07  0.36289252E-04 -0.37050147E-07 -0.27882312E-07  0.10210002E-07
    4    2    0.36280399E-04  0.78615377E-08 -0.88825335E-08 -0.93882114E-08 -0.36293169E-04 -0.57746194E-09
    1    3   -0.36326214E-04 -0.18738517E-07 -0.30344914E-09  0.32932427E-09 -0.36303115E-04 -0.21142262E-07
    2    3   -0.36266666E-04 -0.42695475E-07 -0.36289252E-04 -0.37050147E-07  0.27882312E-07  0.10210002E-07
    3    3    0.25153490E-16  0.11826920E-23  0.26020852E-17  0.29121380E-23 -0.20816682E-16 -0.11655358E-23
    4    3    0.27004261E-07  0.24839708E-08 -0.36282438E-04 -0.89212213E-08 -0.36282149E-04 -0.88555652E-08
    1    4   -0.36261268E-04 -0.17914251E-09  0.36281690E-04  0.16944815E-07 -0.65527613E-08 -0.80007309E-08
    2    4   -0.36280399E-04  0.78615378E-08  0.88825335E-08 -0.93882114E-08  0.36293169E-04 -0.57746195E-09
    3    4   -0.27004261E-07  0.24839708E-08  0.36282438E-04 -0.89212213E-08  0.36282149E-04 -0.88555652E-08
    4    4    0.17997756E-16  0.46182098E-23 -0.73725748E-17 -0.29098297E-23 -0.28406097E-16 -0.76580065E-23

   -2   -1    1
    1    1    0.83078469E-08  0.45967532E-08 -0.72923941E-08 -0.28363591E-08  0.83078469E-08  0.45967532E-08
    2    1    0.22075882E-02 -0.26837509E-08 -0.14312382E-02  0.16623087E-07 -0.13599151E-02 -0.16404511E-07
    3    1   -0.46319908E-04 -0.14618667E-07  0.44806419E-04 -0.21589745E-07 -0.46322194E-04 -0.54125639E-08
    4    1   -0.13599189E-02  0.44446525E-08 -0.14312184E-02 -0.68367916E-08  0.22075845E-02  0.68039111E-08
    1    2    0.27227706E-02 -0.22163218E-07 -0.15924803E-02  0.14389980E-07 -0.21316000E-02  0.24393613E-07
    2    2    0.50123928E-08  0.12018084E-07 -0.20521595E-07 -0.11697796E-07  0.50123928E-08  0.12018084E-07
    3    2   -0.15564259E-02  0.17627476E-07  0.12554481E-02  0.10771236E-07  0.20110967E-02 -0.96850651E-08
    4    2   -0.33209549E-03  0.28675619E-07  0.12541848E-02 -0.21066594E-07 -0.67550271E-03 -0.56462510E-07
    1    3   -0.23734463E-05 -0.81380418E-08  0.54455864E-03 -0.18641561E-07 -0.23485669E-05 -0.69857406E-08
    2    3   -0.30660232E-02  0.10957002E-07  0.73193512E-03 -0.13210135E-07  0.17883009E-02 -0.91372024E-08
    3    3    0.77734874E-09 -0.34951484E-08  0.90216062E-08 -0.28072905E-08  0.77734875E-09 -0.34951484E-08
    4    3    0.17883094E-02 -0.67050163E-08  0.73190188E-03  0.38354844E-07 -0.30660662E-02  0.18121593E-07
    1    4   -0.21315982E-02  0.17815009E-07 -0.15925053E-02  0.54052447E-08  0.27227724E-02 -0.17512717E-07
    2    4   -0.67550016E-03  0.40956180E-07  0.12541866E-02 -0.14603699E-07 -0.33210287E-03 -0.15167279E-07
    3    4    0.20110961E-02 -0.17153982E-07  0.12554235E-02  0.98688463E-08 -0.15564387E-02  0.99865660E-08
    4    4    0.92221505E-08 -0.89959180E-08  0.87249338E-08 -0.57417731E-08  0.92221505E-08 -0.89959180E-08

   -2   -1    2
    1    1    0.25097455E-08 -0.28565487E-08  0.31292960E-08 -0.41257097E-08  0.31292960E-08 -0.41257097E-08
    2    1    0.12541754E-02  0.97768738E-09 -0.67549456E-03  0.57432436E-07 -0.33214478E-03 -0.26563033E-07
    3    1    0.12554065E-02  0.15204932E-07  0.20110805E-02 -0.26098921E-07 -0.15564151E-02  0.31122969E-07
    4    1   -0.15924772E-02 -0.41064598E-08 -0.21316172E-02 -0.28224467E-07  0.27227966E-02 -0.24288327E-08
    1    2    0.12541444E-02 -0.70032845E-08 -0.33212374E-03 -0.13431312E-07 -0.67547299E-03 -0.61228229E-09
    2    2   -0.44782020E-08 -0.69963397E-08 -0.80430444E-08  0.10632871E-07 -0.80430444E-08  0.10632871E-07
    3    2    0.12554531E-02 -0.41213494E-07 -0.15564000E-02  0.30585461E-08  0.20110695E-02 -0.86753702E-08
    4    2   -0.15924907E-02 -0.30734456E-08  0.27227923E-02 -0.28971233E-07 -0.21315910E-02  0.10638096E-07
    1    3    0.73192014E-03  0.41434306E-07  0.17883416E-02  0.41559482E-08 -0.30660954E-02 -0.15601355E-07
    2    3    0.73195487E-03 -0.37935058E-07 -0.30660625E-02 -0.36601776E-07  0.17883478E-02  0.37872709E-07
    3    3   -0.14151236E-08 -0.14006102E-07 -0.33566048E-08 -0.50972748E-08 -0.33566048E-08 -0.50972748E-08
    4    3    0.54453703E-03  0.14251462E-07 -0.23411080E-05  0.22893909E-07 -0.23630716E-05 -0.65460676E-08
    1    4   -0.14311822E-02  0.20540823E-08 -0.13599215E-02  0.14126775E-07  0.22075777E-02 -0.36319692E-08
    2    4   -0.14312503E-02 -0.16107587E-07  0.22076010E-02 -0.28027414E-07 -0.13599021E-02  0.19899313E-07
    3    4    0.44800029E-04  0.69871308E-08 -0.46337233E-04 -0.12567900E-08 -0.46318433E-04 -0.17160202E-07
    4    4    0.86067390E-08 -0.17707827E-07 -0.79217766E-08  0.93289552E-08 -0.79217766E-08  0.93289552E-08

   -2    0    0
    1    1    0.22541314E-07 -0.41313515E-16 -0.95133909E-08  0.41313511E-16  0.22541314E-07 -0.41313515E-16
    2    1   -0.44541053E-02 -0.40558297E-08  0.13639827E-02 -0.13156513E-07  0.48257468E-02  0.10524257E-08
    3    1    0.85232847E-08 -0.49880049E-08 -0.71276588E-03  0.96934824E-08 -0.66860559E-08 -0.92037373E-08
    4    1    0.48257439E-02  0.53137941E-08  0.13639905E-02 -0.16934438E-07 -0.44541031E-02 -0.14211241E-07
    1    2    0.48257468E-02 -0.10524257E-08 -0.33745648E-03  0.17991485E-08 -0.44541053E-02  0.40558297E-08
    2    2   -0.50450174E-07 -0.41313505E-16 -0.48854230E-07 -0.41313512E-16 -0.50450174E-07  0.41313528E-16
    3    2    0.44541214E-02 -0.28353160E-07 -0.33744148E-03 -0.18169293E-07 -0.48257007E-02  0.57682992E-08
    4    2   -0.26525997E-01  0.27792105E-07  0.21159462E-02  0.19290508E-07  0.26525988E-01  0.81577718E-08
    1    3   -0.66860559E-08  0.92037373E-08 -0.71276918E-03 -0.93902314E-08  0.85232847E-08  0.49880049E-08
    2    3   -0.48257007E-02 -0.57682992E-08  0.13640332E-02  0.18744118E-07  0.44541214E-02  0.28353160E-07
    3    3   -0.50648541E-07  0.41313532E-16 -0.53530851E-07  0.41313521E-16 -0.50648541E-07  0.41313521E-16
    4    3    0.44541076E-02 -0.17138547E-07  0.13639851E-02 -0.10088995E-07 -0.48257433E-02 -0.12587620E-07
    1    4   -0.44541031E-02  0.14211241E-07 -0.33747970E-03 -0.39110046E-08  0.48257439E-02 -0.53137941E-08
    2    4    0.26525988E-01 -0.81577718E-08  0.21159421E-02 -0.88843376E-08 -0.26525997E-01 -0.27792105E-07
    3    4   -0.48257433E-02  0.12587620E-07 -0.33744769E-03 -0.37146065E-08  0.44541076E-02  0.17138547E-07
    4    4    0.71417148E-08  0.41313514E-16  0.35826925E-08 -0.41313519E-16  0.71417151E-08 -0.41313525E-16

   -2    0    1
    1    1    0.16347333E-07 -0.25138892E-07 -0.42437805E-08  0.40132331E-08  0.14239903E-07 -0.24203318E-07
    2    1   -0.28065111E-02  0.65160180E-08  0.55739847E-03 -0.15920937E-07  0.22609587E-02  0.59884268E-08
    3    1    0.22299604E-02 -0.41101555E-08  0.24594913E-02 -0.55327701E-08 -0.17965870E-02  0.42521428E-07
    4    1    0.10422551E-02  0.16678719E-08  0.34681680E-02 -0.74869186E-08 -0.43346650E-02  0.14277489E-08
    1    2   -0.27308665E-02 -0.92892338E-08  0.29743275E-02 -0.56217731E-07  0.29547445E-02 -0.12925776E-09
    2    2    0.32448520E-07  0.18445335E-07  0.20490773E-07  0.10209131E-07  0.28709144E-07  0.68267033E-08
    3    2   -0.44522402E-02  0.25769980E-07 -0.44522502E-02  0.41967467E-07  0.31132212E-02 -0.29347881E-07
    4    2    0.29743015E-02 -0.34927154E-07 -0.27308558E-02  0.18177703E-07  0.29547538E-02  0.24517847E-07
    1    3    0.96937863E-05  0.52807101E-07  0.92255245E-03  0.93587833E-08 -0.94510628E-03  0.17202773E-07
    2    3   -0.57063527E-03 -0.16947815E-07 -0.57066709E-03 -0.14029231E-07  0.14426374E-02 -0.11979902E-07
    3    3    0.40767900E-07 -0.33086439E-07  0.48471624E-07 -0.12754084E-07  0.47169079E-07 -0.26273299E-07
    4    3    0.92254174E-03  0.62579945E-08  0.97071543E-05  0.76817797E-08 -0.94514238E-03  0.22004297E-07
    1    4    0.34681637E-02  0.14002538E-07  0.10422473E-02 -0.15925547E-08 -0.43346734E-02  0.77579909E-08
    2    4    0.55740300E-03 -0.24729390E-07 -0.28064826E-02 -0.70890472E-08  0.22609569E-02  0.29576859E-07
    3    4    0.24594625E-02  0.13212503E-07  0.22299325E-02 -0.59115448E-08 -0.17965632E-02  0.12202750E-07
    4    4    0.20580138E-07  0.17390124E-08  0.18755749E-07 -0.26939098E-07  0.23119844E-07 -0.21829137E-07

   -2    0    2
[...]
    4    3    0.27004261E-07  0.24839708E-08 -0.36282438E-04 -0.89212213E-08 -0.36282149E-04 -0.88555652E-08
    1    4   -0.36261268E-04 -0.17914251E-09  0.36281690E-04  0.16944815E-07 -0.65527613E-08 -0.80007309E-08
    2    4   -0.36280399E-04  0.78615378E-08  0.88825335E-08 -0.93882114E-08  0.36293169E-04 -0.57746195E-09
    3    4   -0.27004261E-07  0.24839708E-08  0.36282438E-04 -0.89212213E-08  0.36282149E-04 -0.88555652E-08
    4    4    0.17997756E-16  0.26071921E-23 -0.73725748E-17 -0.16478993E-23 -0.28406097E-16 -0.56469889E-23

    2   -1   -2
    1    1    0.25097456E-08 -0.28565487E-08  0.31292960E-08 -0.41257097E-08  0.31292960E-08 -0.41257097E-08
    2    1    0.12541754E-02  0.97768738E-09 -0.67549456E-03  0.57432436E-07 -0.33214478E-03 -0.26563033E-07
    3    1    0.12554065E-02  0.15204932E-07  0.20110805E-02 -0.26098921E-07 -0.15564151E-02  0.31122969E-07
    4    1   -0.15924772E-02 -0.41064598E-08 -0.21316172E-02 -0.28224467E-07  0.27227966E-02 -0.24288327E-08
    1    2    0.12541444E-02 -0.70032845E-08 -0.33212374E-03 -0.13431312E-07 -0.67547299E-03 -0.61228230E-09
    2    2   -0.44782020E-08 -0.69963397E-08 -0.80430444E-08  0.10632871E-07 -0.80430444E-08  0.10632871E-07
    3    2    0.12554531E-02 -0.41213494E-07 -0.15564000E-02  0.30585461E-08  0.20110695E-02 -0.86753702E-08
    4    2   -0.15924907E-02 -0.30734456E-08  0.27227923E-02 -0.28971233E-07 -0.21315910E-02  0.10638096E-07
    1    3    0.73192014E-03  0.41434306E-07  0.17883416E-02  0.41559482E-08 -0.30660954E-02 -0.15601355E-07
    2    3    0.73195487E-03 -0.37935058E-07 -0.30660625E-02 -0.36601776E-07  0.17883478E-02  0.37872709E-07
    3    3   -0.14151236E-08 -0.14006102E-07 -0.33566048E-08 -0.50972748E-08 -0.33566048E-08 -0.50972748E-08
    4    3    0.54453703E-03  0.14251462E-07 -0.23411080E-05  0.22893909E-07 -0.23630716E-05 -0.65460676E-08
    1    4   -0.14311822E-02  0.20540823E-08 -0.13599215E-02  0.14126775E-07  0.22075777E-02 -0.36319692E-08
    2    4   -0.14312503E-02 -0.16107587E-07  0.22076010E-02 -0.28027414E-07 -0.13599021E-02  0.19899313E-07
    3    4    0.44800029E-04  0.69871308E-08 -0.46337233E-04 -0.12567900E-08 -0.46318433E-04 -0.17160202E-07
    4    4    0.86067390E-08 -0.17707827E-07 -0.79217766E-08  0.93289552E-08 -0.79217766E-08  0.93289552E-08

    2   -1   -1
    1    1   -0.15692439E-07 -0.75541477E-08 -0.25639548E-09  0.63332181E-08 -0.15585050E-07  0.12564986E-08
    2    1    0.24394993E-02 -0.14565738E-07  0.42803625E-03  0.30353545E-08 -0.23760311E-02  0.93190350E-09
    3    1   -0.40340831E-02  0.49105312E-08 -0.43174754E-02 -0.10569146E-07  0.20369359E-02  0.12948114E-07
    4    1   -0.64588548E-03  0.10859995E-07 -0.43729101E-03 -0.98476311E-08  0.11049304E-02  0.25787389E-08
    1    2    0.30721225E-02 -0.69605360E-08  0.10275376E-02 -0.88390480E-08  0.10195132E-02  0.69483457E-08
    2    2    0.74344137E-08 -0.59304729E-08 -0.60299855E-08 -0.95043136E-08 -0.12819394E-07 -0.11309600E-07
    3    2   -0.10195215E-02  0.89388884E-10  0.10275246E-02  0.45779688E-08 -0.30721047E-02 -0.14265418E-07
    4    2    0.64557322E-03 -0.59359181E-08  0.89546730E-03 -0.29458721E-09 -0.64556502E-03 -0.89456616E-08
    1    3   -0.20369390E-02 -0.63137678E-08 -0.43174864E-02 -0.10275072E-07  0.40341013E-02  0.25809099E-07
    2    3    0.23760383E-02  0.15991049E-07  0.42805121E-03  0.25166983E-07 -0.24395002E-02  0.43579386E-08
    3    3   -0.38851490E-08 -0.10575582E-07  0.21727772E-07  0.36807723E-09  0.25049092E-07 -0.25826042E-08
    4    3   -0.11049349E-02  0.10470269E-07 -0.43731586E-03 -0.11675128E-07  0.64586802E-03 -0.19689181E-07
    1    4   -0.59046085E-03  0.10942357E-07 -0.31603866E-02  0.82394395E-08  0.16388234E-02 -0.20689682E-07
    2    4    0.49738853E-03  0.25030764E-08  0.66579045E-02 -0.25368941E-07 -0.49738844E-03  0.72995422E-09
    3    4   -0.16388001E-02 -0.50040888E-09 -0.31603776E-02  0.35985429E-08  0.59044196E-03  0.15372730E-08
    4    4   -0.66736202E-09 -0.16710894E-07  0.15836909E-07  0.26430994E-07  0.24354618E-07  0.28781007E-07

    2   -1    0
    1    1   -0.15087040E-08 -0.13981812E-08  0.10676704E-07  0.17023703E-07  0.29148080E-08  0.90807853E-08
    2    1    0.66579492E-02 -0.54836415E-08  0.49740554E-03 -0.16973138E-07 -0.49741954E-03  0.53685689E-07
    3    1   -0.31603989E-02  0.15196210E-07 -0.16388208E-02  0.30541529E-07  0.59046495E-03 -0.39247965E-07
    4    1   -0.31603905E-02 -0.19251214E-07 -0.59046470E-03 -0.19883400E-07  0.16388296E-02  0.17799370E-07
    1    2    0.89545777E-03  0.26619770E-07  0.64558450E-03 -0.90513356E-08 -0.64556651E-03  0.29380758E-07
    2    2   -0.41589406E-07 -0.17753344E-07  0.38106847E-07  0.14954549E-07 -0.18529522E-07 -0.24594028E-07
    3    2    0.10275456E-02 -0.35065255E-07 -0.10195367E-02 -0.54292426E-07 -0.30721391E-02  0.25769681E-07
    4    2    0.10275596E-02  0.20326118E-07  0.30721211E-02  0.17284122E-07  0.10194997E-02 -0.42446605E-07
    1    3   -0.43728584E-03 -0.36918721E-07 -0.11049358E-02 -0.13874331E-07  0.64586298E-03 -0.18353926E-07
    2    3    0.42803579E-03 -0.26435968E-07  0.23760564E-02 -0.23709167E-08 -0.24394447E-02  0.23728656E-08
    3    3    0.11077900E-07  0.26880780E-07 -0.34938632E-07 -0.33507168E-08 -0.14060046E-07  0.29404601E-07
    4    3   -0.43174739E-02  0.22270571E-07 -0.20369530E-02 -0.54312501E-08  0.40340737E-02  0.39408966E-08
    1    4   -0.43727367E-03  0.14915819E-07 -0.64588069E-03  0.10912156E-09  0.11049308E-02  0.60484225E-08
    2    4    0.42805133E-03  0.11276938E-07  0.24394665E-02 -0.51253214E-08 -0.23760909E-02 -0.16345129E-07
    3    4   -0.43174824E-02 -0.10448613E-07 -0.40340548E-02  0.15288976E-07  0.20369831E-02 -0.90297362E-08
    4    4    0.13603008E-08 -0.67570272E-08  0.26906283E-08  0.54493185E-08  0.14634233E-07 -0.71269631E-08

    2   -1    1
    1    1    0.83078469E-08  0.45967532E-08 -0.72923941E-08 -0.28363591E-08  0.83078469E-08  0.45967532E-08
    2    1    0.22075882E-02 -0.26837509E-08 -0.14312382E-02  0.16623087E-07 -0.13599151E-02 -0.16404511E-07
    3    1   -0.46319908E-04 -0.14618667E-07  0.44806419E-04 -0.21589745E-07 -0.46322194E-04 -0.54125639E-08
    4    1   -0.13599189E-02  0.44446525E-08 -0.14312184E-02 -0.68367916E-08  0.22075845E-02  0.68039111E-08
    1    2    0.27227706E-02 -0.22163218E-07 -0.15924803E-02  0.14389980E-07 -0.21316000E-02  0.24393613E-07
    2    2    0.50123928E-08  0.12018084E-07 -0.20521595E-07 -0.11697796E-07  0.50123928E-08  0.12018084E-07
    3    2   -0.15564259E-02  0.17627476E-07  0.12554481E-02  0.10771236E-07  0.20110967E-02 -0.96850651E-08
    4    2   -0.33209549E-03  0.28675619E-07  0.12541848E-02 -0.21066594E-07 -0.67550271E-03 -0.56462510E-07
    1    3   -0.23734463E-05 -0.81380418E-08  0.54455864E-03 -0.18641561E-07 -0.23485669E-05 -0.69857406E-08
    2    3   -0.30660232E-02  0.10957002E-07  0.73193512E-03 -0.13210135E-07  0.17883009E-02 -0.91372024E-08
    3    3    0.77734873E-09 -0.34951484E-08  0.90216062E-08 -0.28072905E-08  0.77734875E-09 -0.34951484E-08
    4    3    0.17883094E-02 -0.67050163E-08  0.73190188E-03  0.38354844E-07 -0.30660662E-02  0.18121593E-07
    1    4   -0.21315982E-02  0.17815009E-07 -0.15925053E-02  0.54052447E-08  0.27227724E-02 -0.17512717E-07
    2    4   -0.67550016E-03  0.40956180E-07  0.12541866E-02 -0.14603699E-07 -0.33210287E-03 -0.15167279E-07
    3    4    0.20110961E-02 -0.17153982E-07  0.12554235E-02  0.98688463E-08 -0.15564387E-02  0.99865660E-08
    4    4    0.92221505E-08 -0.89959180E-08  0.87249338E-08 -0.57417731E-08  0.92221505E-08 -0.89959180E-08

    2    0   -2
    1    1   -0.17890552E-07  0.24123565E-23 -0.15746524E-07  0.99781524E-24 -0.15746524E-07  0.43355434E-24
    2    1    0.21159618E-02  0.38234715E-09  0.26525967E-01 -0.39682842E-07 -0.26525945E-01  0.28464701E-07
    3    1   -0.33745696E-03 -0.97331713E-08 -0.48257232E-02  0.13796554E-07  0.44540805E-02  0.10718858E-07
    4    1   -0.33747765E-03  0.12060413E-07 -0.44540666E-02 -0.15680023E-07  0.48257102E-02  0.51927755E-09
    1    2    0.21159734E-02 -0.11069868E-07 -0.26525945E-01 -0.28464701E-07  0.26525967E-01  0.39682842E-07
    2    2    0.30438535E-07 -0.38668098E-24 -0.30532948E-08  0.24717465E-24 -0.30532948E-08  0.64076505E-23
    3    2   -0.33747328E-03 -0.11021468E-07  0.44540773E-02  0.70719376E-09 -0.48257523E-02  0.47783747E-08
    4    2   -0.33750549E-03  0.34460711E-07  0.48257340E-02  0.15891908E-07 -0.44540535E-02 -0.40686576E-07
    1    3    0.13639859E-02  0.10034901E-07  0.44540805E-02 -0.10718858E-07 -0.48257232E-02 -0.13796554E-07
    2    3    0.13639599E-02 -0.31809623E-08 -0.48257523E-02 -0.47783747E-08  0.44540773E-02 -0.70719377E-09
    3    3    0.66889475E-08  0.13770061E-23 -0.20621684E-08  0.11073386E-23 -0.20621684E-08 -0.66277402E-24
    4    3   -0.71274714E-03 -0.48507628E-08  0.15578243E-07  0.94096245E-08  0.10484431E-07  0.97522009E-08
    1    4    0.13639729E-02  0.10978550E-07  0.48257102E-02 -0.51927755E-09 -0.44540666E-02  0.15680023E-07
    2    4    0.13639590E-02  0.10674973E-07 -0.44540535E-02  0.40686576E-07  0.48257340E-02 -0.15891908E-07
    3    4   -0.71277190E-03  0.13720358E-07  0.10484431E-07 -0.97522009E-08  0.15578243E-07 -0.94096245E-08
    4    4    0.44088969E-07 -0.46765724E-23 -0.40433436E-07 -0.61095415E-23 -0.40433436E-07  0.47334985E-23

    2    0   -1
    1    1    0.16347333E-07  0.25138892E-07 -0.42437805E-08 -0.40132331E-08  0.14239903E-07  0.24203318E-07
    2    1    0.24394558E-02  0.32671157E-08  0.23760423E-02 -0.11135046E-08 -0.42803341E-03  0.36686065E-07
    3    1   -0.64586310E-03 -0.17445078E-07 -0.11049310E-02  0.12695246E-07  0.43726291E-03 -0.42376508E-07
    4    1   -0.40340935E-02 -0.12611994E-08 -0.20369454E-02 -0.10482228E-07  0.43174883E-02 -0.16135421E-07
    1    2    0.30721414E-02  0.10659464E-08 -0.10194951E-02  0.84032006E-08 -0.10275442E-02  0.28855774E-08
    2    2    0.32448520E-07 -0.18445335E-07  0.20490773E-07 -0.10209131E-07  0.28709144E-07 -0.68267033E-08
    3    2    0.64554191E-03  0.18364645E-07  0.64552574E-03 -0.22587085E-08 -0.89545907E-03  0.20106488E-07
    4    2   -0.10195130E-02 -0.13055654E-07  0.30721246E-02 -0.12093506E-07 -0.10275289E-02  0.30163112E-07
    1    3   -0.59049295E-03 -0.23654285E-07 -0.16388434E-02 -0.32559740E-07  0.31604001E-02  0.19035628E-07
    2    3    0.49740232E-03  0.14903054E-07  0.49737471E-03  0.31806479E-07 -0.66579323E-02 -0.37141111E-07
    3    3    0.40767900E-07  0.33086439E-07  0.48471624E-07  0.12754084E-07  0.47169079E-07  0.26273299E-07
    4    3   -0.16388316E-02 -0.52533864E-08 -0.59047287E-03 -0.17114551E-07  0.31603606E-02 -0.43241118E-08
    1    4   -0.20369472E-02  0.13892765E-07 -0.40340944E-02 -0.15728411E-07  0.43174819E-02  0.22994861E-08
    2    4    0.23760368E-02 -0.55044864E-08  0.24394817E-02 -0.20930094E-07 -0.42803426E-03  0.78279798E-08
    3    4   -0.11049606E-02 -0.47893319E-08 -0.64588494E-03 -0.12320680E-07  0.43726695E-03 -0.31190785E-08
    4    4    0.20580138E-07 -0.17390124E-08  0.18755749E-07  0.26939098E-07  0.23119844E-07  0.21829137E-07

    2    0    0
    1    1    0.22541314E-07  0.41313515E-16 -0.95133909E-08 -0.41313511E-16  0.22541314E-07  0.41313515E-16
    2    1   -0.44541053E-02 -0.40558297E-08  0.13639827E-02 -0.13156513E-07  0.48257468E-02  0.10524257E-08
    3    1    0.85232847E-08 -0.49880049E-08 -0.71276588E-03  0.96934824E-08 -0.66860559E-08 -0.92037373E-08
    4    1    0.48257439E-02  0.53137941E-08  0.13639905E-02 -0.16934438E-07 -0.44541031E-02 -0.14211241E-07
    1    2    0.48257468E-02 -0.10524257E-08 -0.33745648E-03  0.17991485E-08 -0.44541053E-02  0.40558297E-08
    2    2   -0.50450174E-07  0.41313505E-16 -0.48854230E-07  0.41313512E-16 -0.50450174E-07 -0.41313528E-16
    3    2    0.44541214E-02 -0.28353160E-07 -0.33744148E-03 -0.18169293E-07 -0.48257007E-02  0.57682992E-08
    4    2   -0.26525997E-01  0.27792105E-07  0.21159462E-02  0.19290508E-07  0.26525988E-01  0.81577718E-08
    1    3   -0.66860559E-08  0.92037373E-08 -0.71276918E-03 -0.93902314E-08  0.85232847E-08  0.49880049E-08
    2    3   -0.48257007E-02 -0.57682992E-08  0.13640332E-02  0.18744118E-07  0.44541214E-02  0.28353160E-07
    3    3   -0.50648541E-07 -0.41313532E-16 -0.53530851E-07 -0.41313521E-16 -0.50648541E-07 -0.41313521E-16
    4    3    0.44541076E-02 -0.17138547E-07  0.13639851E-02 -0.10088995E-07 -0.48257433E-02 -0.12587620E-07
    1    4   -0.44541031E-02  0.14211241E-07 -0.33747970E-03 -0.39110046E-08  0.48257439E-02 -0.53137941E-08
    2    4    0.26525988E-01 -0.81577717E-08  0.21159421E-02 -0.88843376E-08 -0.26525997E-01 -0.27792105E-07
    3    4   -0.48257433E-02  0.12587620E-07 -0.33744769E-03 -0.37146065E-08  0.44541076E-02  0.17138547E-07
    4    4    0.71417148E-08 -0.41313514E-16  0.35826925E-08  0.41313519E-16  0.71417151E-08  0.41313525E-16

    2    1   -2
    1    1    0.25097455E-08  0.28565487E-08  0.31292960E-08  0.41257097E-08  0.31292960E-08  0.41257097E-08
    2    1    0.12541773E-02  0.29787442E-08  0.33212960E-03  0.48266106E-08  0.67547885E-03  0.17645640E-07
    3    1   -0.15924753E-02  0.18858238E-07 -0.27228039E-02 -0.10009789E-08  0.21316331E-02 -0.20758282E-07
    4    1    0.12553996E-02 -0.43750806E-08  0.15564258E-02  0.11048748E-07 -0.20110734E-02 -0.67099959E-08
    1    2    0.12541617E-02  0.13233292E-07  0.67548154E-03  0.41365132E-07  0.33213175E-03 -0.42630337E-07
    2    2   -0.44782020E-08  0.69963397E-08 -0.80430444E-08 -0.10632871E-07 -0.80430444E-08 -0.10632871E-07
    3    2   -0.15924750E-02 -0.37218672E-07  0.21316066E-02 -0.36700133E-07 -0.27228037E-02  0.37774352E-07
    4    2    0.12554594E-02 -0.27615837E-07 -0.20110847E-02 -0.67306822E-08  0.15564185E-02  0.41196045E-07
    1    3   -0.14311957E-02  0.41515627E-08 -0.22075840E-02 -0.31952108E-07  0.13599116E-02  0.25269783E-07
    2    3   -0.14312222E-02 -0.34400986E-07  0.13598951E-02 -0.48934208E-09 -0.22075743E-02 -0.12223258E-07
    3    3   -0.14151236E-08  0.14006102E-07 -0.33566048E-08  0.50972748E-08 -0.33566048E-08  0.50972748E-08
    4    3    0.44801082E-04  0.67067353E-08  0.46340478E-04  0.18862097E-09  0.46321679E-04 -0.15714791E-07
    1    4    0.73192705E-03 -0.98108365E-08  0.30660832E-02 -0.12938271E-07 -0.17883306E-02  0.12857363E-07
    2    4    0.73193847E-03 -0.32323510E-07 -0.17883247E-02 -0.15434102E-07  0.30660586E-02  0.24175227E-07
    3    4    0.54453042E-03  0.30507287E-08  0.23522613E-05  0.80733900E-08  0.23742249E-05 -0.21366586E-07
    4    4    0.86067390E-08  0.17707827E-07 -0.79217766E-08 -0.93289552E-08 -0.79217766E-08 -0.93289552E-08

    2    1   -1
    1    1    0.83078469E-08 -0.45967532E-08 -0.72923941E-08  0.28363591E-08  0.83078469E-08 -0.45967532E-08
    2    1   -0.17883219E-02 -0.15002741E-07  0.73195522E-03 -0.15448999E-07  0.30660487E-02  0.31554090E-07
    3    1    0.23750600E-05 -0.48051960E-08  0.54454584E-03 -0.12129937E-07  0.23501806E-05 -0.36528947E-08
    4    1    0.30660532E-02  0.12624601E-07  0.73193876E-03  0.24241867E-07 -0.17883173E-02 -0.22703125E-07
    1    2   -0.20111045E-02  0.12604228E-07  0.12554514E-02  0.11460620E-07  0.15563988E-02 -0.11165321E-08
    2    2    0.50123928E-08 -0.12018084E-07 -0.20521595E-07  0.11697796E-07  0.50123928E-08 -0.12018084E-07
    3    2    0.21315702E-02  0.60027372E-08 -0.15924845E-02 -0.11409034E-07 -0.27227540E-02 -0.14091467E-07
    4    2    0.67551165E-03  0.39880035E-07  0.12541802E-02 -0.18247298E-07  0.33211436E-03 -0.16243425E-07
    1    3    0.46322582E-04 -0.12434247E-07  0.44811767E-04 -0.41332534E-08  0.46324868E-04 -0.32281438E-08
    2    3    0.13599194E-02  0.16808898E-07 -0.14312388E-02  0.85426464E-08 -0.22076031E-02 -0.10503644E-07
    3    3    0.77734874E-09  0.34951484E-08  0.90216062E-08  0.28072905E-08  0.77734875E-09  0.34951484E-08
    4    3   -0.22076038E-02 -0.21749167E-07 -0.14312222E-02 -0.41880087E-08  0.13599310E-02  0.53913815E-08
    1    4    0.15564166E-02 -0.22837416E-08  0.12554181E-02 -0.15514516E-07 -0.20110869E-02  0.75517019E-10
    2    4    0.33209590E-03  0.40833649E-07  0.12541706E-02 -0.14739115E-07  0.67550313E-03 -0.44304480E-07
    3    4   -0.27227872E-02 -0.21621242E-07 -0.15924821E-02  0.19676278E-07  0.21315885E-02  0.32053674E-08
    4    4    0.92221505E-08  0.89959180E-08  0.87249338E-08  0.57417731E-08  0.92221505E-08  0.89959180E-08

    2    2   -2
    1    1   -0.22551405E-16  0.24715255E-23 -0.10408341E-16 -0.88758267E-24 -0.15612511E-16 -0.44418068E-24
    2    1   -0.24574984E-07  0.18236366E-08 -0.36292054E-04 -0.28602608E-07  0.36252083E-04  0.35768534E-07
    3    1    0.36326214E-04 -0.18738517E-07  0.30344915E-09  0.32932427E-09  0.36303115E-04 -0.21142262E-07
    4    1    0.36261268E-04 -0.17914252E-09 -0.36281690E-04  0.16944815E-07  0.65527613E-08 -0.80007309E-08
    1    2    0.24574984E-07  0.18236366E-08  0.36292054E-04 -0.28602608E-07 -0.36252083E-04  0.35768534E-07
    2    2   -0.53125906E-16 -0.97573159E-24 -0.40549161E-16  0.26596404E-23  0.58546917E-17  0.18694211E-23
    3    2    0.36266666E-04 -0.42695475E-07  0.36289252E-04 -0.37050147E-07 -0.27882312E-07  0.10210002E-07
    4    2    0.36280399E-04  0.78615377E-08 -0.88825335E-08 -0.93882114E-08 -0.36293169E-04 -0.57746194E-09
    1    3   -0.36326214E-04 -0.18738517E-07 -0.30344913E-09  0.32932427E-09 -0.36303115E-04 -0.21142262E-07
    2    3   -0.36266666E-04 -0.42695475E-07 -0.36289252E-04 -0.37050147E-07  0.27882312E-07  0.10210002E-07
    3    3    0.25153490E-16 -0.11826920E-23  0.26020852E-17 -0.29121380E-23 -0.20816682E-16  0.11655358E-23
    4    3    0.27004261E-07  0.24839708E-08 -0.36282438E-04 -0.89212213E-08 -0.36282149E-04 -0.88555652E-08
    1    4   -0.36261268E-04 -0.17914251E-09  0.36281690E-04  0.16944815E-07 -0.65527613E-08 -0.80007309E-08
    2    4   -0.36280399E-04  0.78615378E-08  0.88825335E-08 -0.93882114E-08  0.36293169E-04 -0.57746195E-09
    3    4   -0.27004261E-07  0.24839708E-08  0.36282438E-04 -0.89212213E-08  0.36282149E-04 -0.88555652E-08
    4    4    0.17997756E-16 -0.46182098E-23 -0.73725748E-17  0.29098297E-23 -0.28406097E-16  0.76580065E-23

    3   -1   -1
    1    1    0.95962945E-08  0.11245358E-07  0.30507214E-08  0.25055420E-07 -0.10223492E-07 -0.20136885E-08
    2    1    0.14935192E-02 -0.93643713E-08  0.15692263E-03 -0.40874822E-07 -0.15691356E-03  0.34112998E-07
    3    1   -0.15691427E-03 -0.18751724E-07 -0.14934985E-02  0.74167676E-08 -0.15692777E-03 -0.36404198E-07
    4    1   -0.15692461E-03 -0.73315900E-08  0.15692942E-03 -0.98736688E-08  0.14934891E-02  0.10868643E-07
    1    2    0.14935075E-02  0.85883025E-08 -0.15690134E-03 -0.93557371E-08  0.15693527E-03  0.34883567E-07
    2    2    0.23431018E-07 -0.25914486E-07  0.36893401E-07  0.31768608E-08 -0.21039119E-07 -0.22548549E-07
    3    2   -0.15696524E-03  0.28304418E-07 -0.15694939E-03 -0.10749087E-07 -0.14934868E-02 -0.52268427E-09
    4    2   -0.15692702E-03  0.15561439E-08  0.14934848E-02  0.21416885E-08  0.15692133E-03 -0.14092962E-07
    1    3    0.15690559E-03 -0.35179129E-07 -0.14935224E-02 -0.96056849E-08  0.15692179E-03 -0.33813936E-07
    2    3    0.15689831E-03  0.19278831E-07  0.15692035E-03  0.38512839E-07 -0.14935037E-02  0.25953842E-08
    3    3    0.35684123E-07  0.15949014E-07  0.26611507E-07  0.17355180E-07 -0.10609398E-07  0.24773296E-07
    4    3   -0.14934867E-02 -0.68037582E-08  0.15693358E-03 -0.10842383E-08  0.15692095E-03 -0.68979191E-08
    1    4    0.15694668E-03  0.16639522E-07 -0.15692832E-03 -0.21947206E-08  0.14935075E-02  0.15439589E-08
    2    4    0.15691805E-03 -0.45840170E-08  0.14934934E-02 -0.11987208E-07 -0.15692299E-03 -0.20217317E-07
    3    4   -0.14935031E-02 -0.72370355E-08 -0.15691140E-03 -0.31901378E-08 -0.15694070E-03  0.23365811E-07
    4    4    0.93414711E-08 -0.79589087E-08 -0.19086628E-07  0.29082372E-07  0.83283900E-09  0.30777012E-07
