********************************************************************************
*                       GENERAL UTILITY LATTICE PROGRAM                        *
*                                 Julian Gale                                  *
*                       Curtin Institute for Computation                       *
*                    School of Molecular and Life Sciences                     *
*                    Curtin University, Western Australia                      *
********************************************************************************
* Version = 6.1.2 * Last modified =   3rd November 2022                        *
********************************************************************************
*  optimise     - perform optimisation run                                     *
*  conv         - constant volume calculation                                  *
*  phonon       - calculate phonons for final geometry                         *
*  dynamical    - output dynamical matrix                                      *
*  nod3         - do not calculate third derivatives for ShengBTE              *
*  nosymmetry   - turn off symmetry after initial structure generation         *
*  full         - generate full unit cell when symmetry is removed             *
*  distance     - calculate distances                                          *
********************************************************************************

  Job Started  at 21:40.31  7th May        2024                               

  Number of CPUs =     1


  Total number of configurations input =      1

********************************************************************************
*  Input for Configuration =   1                                               *
********************************************************************************

  Formula = C128                                                        

  Number of irreducible atoms/shells =     128


  Total number atoms/shells =     128

  Dimensionality = 3               :  Bulk   



  Cartesian lattice vectors (Angstroms) :

       17.040000    0.000000    0.000000
        0.000000   19.676097    0.000000
        0.000000    0.000000   15.000000

  Cell parameters (Angstroms/Degrees):

  a =      17.0400    alpha =  90.0000
  b =      19.6761    beta  =  90.0000
  c =      15.0000    gamma =  90.0000

  Initial cell volume =        5029.210437 Angs**3

  Temperature of configuration =   0.00     K 

  Pressure of configuration =         0.000 GPa 

  Fractional coordinates of asymmetric unit :

--------------------------------------------------------------------------------
   No.  Atomic       x           y          z         Charge      Occupancy
        Label      (Frac)      (Frac)     (Frac)        (e)         (Frac)  
--------------------------------------------------------------------------------
      1 C     c    0.000000    0.000000    0.000000     0.00000    1.000000    
      2 C     c    0.166667 *  0.000000 *  0.000000 *   0.00000    1.000000    
      3 C     c    0.041667 *  0.062500 *  0.000000 *   0.00000    1.000000    
      4 C     c    0.125000 *  0.062500 *  0.000000 *   0.00000    1.000000    
      5 C     c    0.000000 *  0.125000 *  0.000000 *   0.00000    1.000000    
      6 C     c    0.166667 *  0.125000 *  0.000000 *   0.00000    1.000000    
      7 C     c    0.041667 *  0.187500 *  0.000000 *   0.00000    1.000000    
      8 C     c    0.125000 *  0.187500 *  0.000000 *   0.00000    1.000000    
      9 C     c    0.000000 *  0.250000 *  0.000000 *   0.00000    1.000000    
     10 C     c    0.166667 *  0.250000 *  0.000000 *   0.00000    1.000000    
     11 C     c    0.041667 *  0.312500 *  0.000000 *   0.00000    1.000000    
     12 C     c    0.125000 *  0.312500 *  0.000000 *   0.00000    1.000000    
     13 C     c    0.000000 *  0.375000 *  0.000000 *   0.00000    1.000000    
     14 C     c    0.166667 *  0.375000 *  0.000000 *   0.00000    1.000000    
     15 C     c    0.041667 *  0.437500 *  0.000000 *   0.00000    1.000000    
     16 C     c    0.125000 *  0.437500 *  0.000000 *   0.00000    1.000000    
     17 C     c    0.000000 *  0.500000 *  0.000000 *   0.00000    1.000000    
     18 C     c    0.166667 *  0.500000 *  0.000000 *   0.00000    1.000000    
     19 C     c    0.041667 *  0.562500 *  0.000000 *   0.00000    1.000000    
     20 C     c    0.125000 *  0.562500 *  0.000000 *   0.00000    1.000000    
     21 C     c    0.000000 *  0.625000 *  0.000000 *   0.00000    1.000000    
     22 C     c    0.166667 *  0.625000 *  0.000000 *   0.00000    1.000000    
     23 C     c    0.041667 *  0.687500 *  0.000000 *   0.00000    1.000000    
     24 C     c    0.125000 *  0.687500 *  0.000000 *   0.00000    1.000000    
     25 C     c    0.000000 *  0.750000 *  0.000000 *   0.00000    1.000000    
     26 C     c    0.166667 *  0.750000 *  0.000000 *   0.00000    1.000000    
     27 C     c    0.041667 *  0.812500 *  0.000000 *   0.00000    1.000000    
     28 C     c    0.125000 *  0.812500 *  0.000000 *   0.00000    1.000000    
     29 C     c    0.000000 *  0.875000 *  0.000000 *   0.00000    1.000000    
     30 C     c    0.166667 *  0.875000 *  0.000000 *   0.00000    1.000000    
     31 C     c    0.041667 *  0.937500 *  0.000000 *   0.00000    1.000000    
     32 C     c    0.125000 *  0.937500 *  0.000000 *   0.00000    1.000000    
     33 C     c    0.250000 *  0.000000 *  0.000000 *   0.00000    1.000000    
     34 C     c    0.416667 *  0.000000 *  0.000000 *   0.00000    1.000000    
     35 C     c    0.291667 *  0.062500 *  0.000000 *   0.00000    1.000000    
     36 C     c    0.375000 *  0.062500 *  0.000000 *   0.00000    1.000000    
     37 C     c    0.250000 *  0.125000 *  0.000000 *   0.00000    1.000000    
     38 C     c    0.416667 *  0.125000 *  0.000000 *   0.00000    1.000000    
     39 C     c    0.291667 *  0.187500 *  0.000000 *   0.00000    1.000000    
     40 C     c    0.375000 *  0.187500 *  0.000000 *   0.00000    1.000000    
     41 C     c    0.250000 *  0.250000 *  0.000000 *   0.00000    1.000000    
     42 C     c    0.416667 *  0.250000 *  0.000000 *   0.00000    1.000000    
     43 C     c    0.291667 *  0.312500 *  0.000000 *   0.00000    1.000000    
     44 C     c    0.375000 *  0.312500 *  0.000000 *   0.00000    1.000000    
     45 C     c    0.250000 *  0.375000 *  0.000000 *   0.00000    1.000000    
     46 C     c    0.416667 *  0.375000 *  0.000000 *   0.00000    1.000000    
     47 C     c    0.291667 *  0.437500 *  0.000000 *   0.00000    1.000000    
     48 C     c    0.375000 *  0.437500 *  0.000000 *   0.00000    1.000000    
     49 C     c    0.250000 *  0.500000 *  0.000000 *   0.00000    1.000000    
     50 C     c    0.416667 *  0.500000 *  0.000000 *   0.00000    1.000000    
     51 C     c    0.291667 *  0.562500 *  0.000000 *   0.00000    1.000000    
     52 C     c    0.375000 *  0.562500 *  0.000000 *   0.00000    1.000000    
     53 C     c    0.250000 *  0.625000 *  0.000000 *   0.00000    1.000000    
     54 C     c    0.416667 *  0.625000 *  0.000000 *   0.00000    1.000000    
     55 C     c    0.291667 *  0.687500 *  0.000000 *   0.00000    1.000000    
     56 C     c    0.375000 *  0.687500 *  0.000000 *   0.00000    1.000000    
     57 C     c    0.250000 *  0.750000 *  0.000000 *   0.00000    1.000000    
     58 C     c    0.416667 *  0.750000 *  0.000000 *   0.00000    1.000000    
     59 C     c    0.291667 *  0.812500 *  0.000000 *   0.00000    1.000000    
     60 C     c    0.375000 *  0.812500 *  0.000000 *   0.00000    1.000000    
     61 C     c    0.250000 *  0.875000 *  0.000000 *   0.00000    1.000000    
     62 C     c    0.416667 *  0.875000 *  0.000000 *   0.00000    1.000000    
     63 C     c    0.291667 *  0.937500 *  0.000000 *   0.00000    1.000000    
     64 C     c    0.375000 *  0.937500 *  0.000000 *   0.00000    1.000000    
     65 C     c    0.500000 *  0.000000 *  0.000000 *   0.00000    1.000000    
     66 C     c    0.666667 *  0.000000 *  0.000000 *   0.00000    1.000000    
     67 C     c    0.541667 *  0.062500 *  0.000000 *   0.00000    1.000000    
     68 C     c    0.625000 *  0.062500 *  0.000000 *   0.00000    1.000000    
     69 C     c    0.500000 *  0.125000 *  0.000000 *   0.00000    1.000000    
     70 C     c    0.666667 *  0.125000 *  0.000000 *   0.00000    1.000000    
     71 C     c    0.541667 *  0.187500 *  0.000000 *   0.00000    1.000000    
     72 C     c    0.625000 *  0.187500 *  0.000000 *   0.00000    1.000000    
     73 C     c    0.500000 *  0.250000 *  0.000000 *   0.00000    1.000000    
     74 C     c    0.666667 *  0.250000 *  0.000000 *   0.00000    1.000000    
     75 C     c    0.541667 *  0.312500 *  0.000000 *   0.00000    1.000000    
     76 C     c    0.625000 *  0.312500 *  0.000000 *   0.00000    1.000000    
     77 C     c    0.500000 *  0.375000 *  0.000000 *   0.00000    1.000000    
     78 C     c    0.666667 *  0.375000 *  0.000000 *   0.00000    1.000000    
     79 C     c    0.541667 *  0.437500 *  0.000000 *   0.00000    1.000000    
     80 C     c    0.625000 *  0.437500 *  0.000000 *   0.00000    1.000000    
     81 C     c    0.500000 *  0.500000 *  0.000000 *   0.00000    1.000000    
     82 C     c    0.666667 *  0.500000 *  0.000000 *   0.00000    1.000000    
     83 C     c    0.541667 *  0.562500 *  0.000000 *   0.00000    1.000000    
     84 C     c    0.625000 *  0.562500 *  0.000000 *   0.00000    1.000000    
     85 C     c    0.500000 *  0.625000 *  0.000000 *   0.00000    1.000000    
     86 C     c    0.666667 *  0.625000 *  0.000000 *   0.00000    1.000000    
     87 C     c    0.541667 *  0.687500 *  0.000000 *   0.00000    1.000000    
     88 C     c    0.625000 *  0.687500 *  0.000000 *   0.00000    1.000000    
     89 C     c    0.500000 *  0.750000 *  0.000000 *   0.00000    1.000000    
     90 C     c    0.666667 *  0.750000 *  0.000000 *   0.00000    1.000000    
     91 C     c    0.541667 *  0.812500 *  0.000000 *   0.00000    1.000000    
     92 C     c    0.625000 *  0.812500 *  0.000000 *   0.00000    1.000000    
     93 C     c    0.500000 *  0.875000 *  0.000000 *   0.00000    1.000000    
     94 C     c    0.666667 *  0.875000 *  0.000000 *   0.00000    1.000000    
     95 C     c    0.541667 *  0.937500 *  0.000000 *   0.00000    1.000000    
     96 C     c    0.625000 *  0.937500 *  0.000000 *   0.00000    1.000000    
     97 C     c    0.750000 *  0.000000 *  0.000000 *   0.00000    1.000000    
     98 C     c    0.916667 *  0.000000 *  0.000000 *   0.00000    1.000000    
     99 C     c    0.791667 *  0.062500 *  0.000000 *   0.00000    1.000000    
    100 C     c    0.875000 *  0.062500 *  0.000000 *   0.00000    1.000000    
    101 C     c    0.750000 *  0.125000 *  0.000000 *   0.00000    1.000000    
    102 C     c    0.916667 *  0.125000 *  0.000000 *   0.00000    1.000000    
    103 C     c    0.791667 *  0.187500 *  0.000000 *   0.00000    1.000000    
    104 C     c    0.875000 *  0.187500 *  0.000000 *   0.00000    1.000000    
    105 C     c    0.750000 *  0.250000 *  0.000000 *   0.00000    1.000000    
    106 C     c    0.916667 *  0.250000 *  0.000000 *   0.00000    1.000000    
    107 C     c    0.791667 *  0.312500 *  0.000000 *   0.00000    1.000000    
    108 C     c    0.875000 *  0.312500 *  0.000000 *   0.00000    1.000000    
    109 C     c    0.750000 *  0.375000 *  0.000000 *   0.00000    1.000000    
    110 C     c    0.916667 *  0.375000 *  0.000000 *   0.00000    1.000000    
    111 C     c    0.791667 *  0.437500 *  0.000000 *   0.00000    1.000000    
    112 C     c    0.875000 *  0.437500 *  0.000000 *   0.00000    1.000000    
    113 C     c    0.750000 *  0.500000 *  0.000000 *   0.00000    1.000000    
    114 C     c    0.916667 *  0.500000 *  0.000000 *   0.00000    1.000000    
    115 C     c    0.791667 *  0.562500 *  0.000000 *   0.00000    1.000000    
    116 C     c    0.875000 *  0.562500 *  0.000000 *   0.00000    1.000000    
    117 C     c    0.750000 *  0.625000 *  0.000000 *   0.00000    1.000000    
    118 C     c    0.916667 *  0.625000 *  0.000000 *   0.00000    1.000000    
    119 C     c    0.791667 *  0.687500 *  0.000000 *   0.00000    1.000000    
    120 C     c    0.875000 *  0.687500 *  0.000000 *   0.00000    1.000000    
    121 C     c    0.750000 *  0.750000 *  0.000000 *   0.00000    1.000000    
    122 C     c    0.916667 *  0.750000 *  0.000000 *   0.00000    1.000000    
    123 C     c    0.791667 *  0.812500 *  0.000000 *   0.00000    1.000000    
    124 C     c    0.875000 *  0.812500 *  0.000000 *   0.00000    1.000000    
    125 C     c    0.750000 *  0.875000 *  0.000000 *   0.00000    1.000000    
    126 C     c    0.916667 *  0.875000 *  0.000000 *   0.00000    1.000000    
    127 C     c    0.791667 *  0.937500 *  0.000000 *   0.00000    1.000000    
    128 C     c    0.875000 *  0.937500 *  0.000000 *   0.00000    1.000000    
--------------------------------------------------------------------------------



  Distance calculation :


  Cutoff for distances  =      3.000000 Angstroms

--------------------------------------------------------------------------------
  Asymmetric unit site  Full lattice sites    No.  Distance      No.  Distance
      No.   At.No.            At.No.                (Angs)             (Angs) 
--------------------------------------------------------------------------------
       1   C     core        C     core         3    1.4200        6    2.4595
                                                3    2.8400
--------------------------------------------------------------------------------
       2   C     core        C     core         3    1.4200        6    2.4595
                                                3    2.8400
--------------------------------------------------------------------------------
       3   C     core        C     core         3    1.4200        6    2.4595
                                                3    2.8400
--------------------------------------------------------------------------------
       4   C     core        C     core         3    1.4200        6    2.4595
                                                3    2.8400
--------------------------------------------------------------------------------
       5   C     core        C     core         3    1.4200        6    2.4595
                                                3    2.8400
--------------------------------------------------------------------------------
       6   C     core        C     core         3    1.4200        6    2.4595
                                                3    2.8400
--------------------------------------------------------------------------------
       7   C     core        C     core         3    1.4200        6    2.4595
                                                3    2.8400
--------------------------------------------------------------------------------
       8   C     core        C     core         3    1.4200        6    2.4595
                                                3    2.8400
--------------------------------------------------------------------------------
       9   C     core        C     core         3    1.4200        6    2.4595
                                                3    2.8400
--------------------------------------------------------------------------------
      10   C     core        C     core         3    1.4200        6    2.4595
                                                3    2.8400
--------------------------------------------------------------------------------
      11   C     core        C     core         3    1.4200        6    2.4595
                                                3    2.8400
--------------------------------------------------------------------------------
      12   C     core        C     core         3    1.4200        6    2.4595
                                                3    2.8400
--------------------------------------------------------------------------------
      13   C     core        C     core         3    1.4200        6    2.4595
                                                3    2.8400
--------------------------------------------------------------------------------
      14   C     core        C     core         3    1.4200        6    2.4595
                                                3    2.8400
--------------------------------------------------------------------------------
      15   C     core        C     core         3    1.4200        6    2.4595
                                                3    2.8400
--------------------------------------------------------------------------------
      16   C     core        C     core         3    1.4200        6    2.4595
                                                3    2.8400
--------------------------------------------------------------------------------
      17   C     core        C     core         3    1.4200        6    2.4595
                                                3    2.8400
--------------------------------------------------------------------------------
      18   C     core        C     core         3    1.4200        6    2.4595
                                                3    2.8400
--------------------------------------------------------------------------------
      19   C     core        C     core         3    1.4200        6    2.4595
                                                3    2.8400
--------------------------------------------------------------------------------
      20   C     core        C     core         3    1.4200        6    2.4595
                                                3    2.8400
--------------------------------------------------------------------------------
      21   C     core        C     core         3    1.4200        6    2.4595
                                                3    2.8400
--------------------------------------------------------------------------------
      22   C     core        C     core         3    1.4200        6    2.4595
                                                3    2.8400
--------------------------------------------------------------------------------
      23   C     core        C     core         3    1.4200        6    2.4595
                                                3    2.8400
--------------------------------------------------------------------------------
      24   C     core        C     core         3    1.4200        6    2.4595
                                                3    2.8400
--------------------------------------------------------------------------------
      25   C     core        C     core         3    1.4200        6    2.4595
                                                3    2.8400
--------------------------------------------------------------------------------
      26   C     core        C     core         3    1.4200        6    2.4595
                                                3    2.8400
--------------------------------------------------------------------------------
      27   C     core        C     core         3    1.4200        6    2.4595
                                                3    2.8400
--------------------------------------------------------------------------------
      28   C     core        C     core         3    1.4200        6    2.4595
                                                3    2.8400
--------------------------------------------------------------------------------
      29   C     core        C     core         3    1.4200        6    2.4595
                                                3    2.8400
--------------------------------------------------------------------------------
      30   C     core        C     core         3    1.4200        6    2.4595
                                                3    2.8400
--------------------------------------------------------------------------------
      31   C     core        C     core         3    1.4200        6    2.4595
                                                3    2.8400
--------------------------------------------------------------------------------
      32   C     core        C     core         3    1.4200        6    2.4595
                                                3    2.8400
--------------------------------------------------------------------------------
      33   C     core        C     core         3    1.4200        6    2.4595
                                                3    2.8400
--------------------------------------------------------------------------------
      34   C     core        C     core         3    1.4200        6    2.4595
                                                3    2.8400
--------------------------------------------------------------------------------
      35   C     core        C     core         3    1.4200        6    2.4595
                                                3    2.8400
--------------------------------------------------------------------------------
      36   C     core        C     core         3    1.4200        6    2.4595
                                                3    2.8400
--------------------------------------------------------------------------------
      37   C     core        C     core         3    1.4200        6    2.4595
                                                3    2.8400
--------------------------------------------------------------------------------
      38   C     core        C     core         3    1.4200        6    2.4595
                                                3    2.8400
--------------------------------------------------------------------------------
      39   C     core        C     core         3    1.4200        6    2.4595
                                                3    2.8400
--------------------------------------------------------------------------------
      40   C     core        C     core         3    1.4200        6    2.4595
                                                3    2.8400
--------------------------------------------------------------------------------
      41   C     core        C     core         3    1.4200        6    2.4595
                                                3    2.8400
--------------------------------------------------------------------------------
      42   C     core        C     core         3    1.4200        6    2.4595
                                                3    2.8400
--------------------------------------------------------------------------------
      43   C     core        C     core         3    1.4200        6    2.4595
                                                3    2.8400
--------------------------------------------------------------------------------
      44   C     core        C     core         3    1.4200        6    2.4595
                                                3    2.8400
--------------------------------------------------------------------------------
      45   C     core        C     core         3    1.4200        6    2.4595
                                                3    2.8400
--------------------------------------------------------------------------------
      46   C     core        C     core         3    1.4200        6    2.4595
                                                3    2.8400
--------------------------------------------------------------------------------
      47   C     core        C     core         3    1.4200        6    2.4595
                                                3    2.8400
--------------------------------------------------------------------------------
      48   C     core        C     core         3    1.4200        6    2.4595
                                                3    2.8400
--------------------------------------------------------------------------------
      49   C     core        C     core         3    1.4200        6    2.4595
                                                3    2.8400
--------------------------------------------------------------------------------
      50   C     core        C     core         3    1.4200        6    2.4595
                                                3    2.8400
--------------------------------------------------------------------------------
      51   C     core        C     core         3    1.4200        6    2.4595
                                                3    2.8400
--------------------------------------------------------------------------------
      52   C     core        C     core         3    1.4200        6    2.4595
                                                3    2.8400
--------------------------------------------------------------------------------
      53   C     core        C     core         3    1.4200        6    2.4595
                                                3    2.8400
--------------------------------------------------------------------------------
      54   C     core        C     core         3    1.4200        6    2.4595
                                                3    2.8400
--------------------------------------------------------------------------------
      55   C     core        C     core         3    1.4200        6    2.4595
                                                3    2.8400
--------------------------------------------------------------------------------
      56   C     core        C     core         3    1.4200        6    2.4595
                                                3    2.8400
--------------------------------------------------------------------------------
      57   C     core        C     core         3    1.4200        6    2.4595
                                                3    2.8400
--------------------------------------------------------------------------------
      58   C     core        C     core         3    1.4200        6    2.4595
                                                3    2.8400
--------------------------------------------------------------------------------
      59   C     core        C     core         3    1.4200        6    2.4595
                                                3    2.8400
--------------------------------------------------------------------------------
      60   C     core        C     core         3    1.4200        6    2.4595
                                                3    2.8400
--------------------------------------------------------------------------------
      61   C     core        C     core         3    1.4200        6    2.4595
                                                3    2.8400
--------------------------------------------------------------------------------
      62   C     core        C     core         3    1.4200        6    2.4595
                                                3    2.8400
--------------------------------------------------------------------------------
      63   C     core        C     core         3    1.4200        6    2.4595
                                                3    2.8400
--------------------------------------------------------------------------------
      64   C     core        C     core         3    1.4200        6    2.4595
                                                3    2.8400
--------------------------------------------------------------------------------
      65   C     core        C     core         3    1.4200        6    2.4595
                                                3    2.8400
--------------------------------------------------------------------------------
      66   C     core        C     core         3    1.4200        6    2.4595
                                                3    2.8400
--------------------------------------------------------------------------------
      67   C     core        C     core         3    1.4200        6    2.4595
                                                3    2.8400
--------------------------------------------------------------------------------
      68   C     core        C     core         3    1.4200        6    2.4595
                                                3    2.8400
--------------------------------------------------------------------------------
      69   C     core        C     core         3    1.4200        6    2.4595
                                                3    2.8400
--------------------------------------------------------------------------------
      70   C     core        C     core         3    1.4200        6    2.4595
                                                3    2.8400
--------------------------------------------------------------------------------
      71   C     core        C     core         3    1.4200        6    2.4595
                                                3    2.8400
--------------------------------------------------------------------------------
      72   C     core        C     core         3    1.4200        6    2.4595
                                                3    2.8400
--------------------------------------------------------------------------------
      73   C     core        C     core         3    1.4200        6    2.4595
                                                3    2.8400
--------------------------------------------------------------------------------
      74   C     core        C     core         3    1.4200        6    2.4595
                                                3    2.8400
--------------------------------------------------------------------------------
      75   C     core        C     core         3    1.4200        6    2.4595
                                                3    2.8400
--------------------------------------------------------------------------------
      76   C     core        C     core         3    1.4200        6    2.4595
                                                3    2.8400
--------------------------------------------------------------------------------
      77   C     core        C     core         3    1.4200        6    2.4595
                                                3    2.8400
--------------------------------------------------------------------------------
      78   C     core        C     core         3    1.4200        6    2.4595
                                                3    2.8400
--------------------------------------------------------------------------------
      79   C     core        C     core         3    1.4200        6    2.4595
                                                3    2.8400
--------------------------------------------------------------------------------
      80   C     core        C     core         3    1.4200        6    2.4595
                                                3    2.8400
--------------------------------------------------------------------------------
      81   C     core        C     core         3    1.4200        6    2.4595
                                                3    2.8400
--------------------------------------------------------------------------------
      82   C     core        C     core         3    1.4200        6    2.4595
                                                3    2.8400
--------------------------------------------------------------------------------
      83   C     core        C     core         3    1.4200        6    2.4595
                                                3    2.8400
--------------------------------------------------------------------------------
      84   C     core        C     core         3    1.4200        6    2.4595
                                                3    2.8400
--------------------------------------------------------------------------------
      85   C     core        C     core         3    1.4200        6    2.4595
                                                3    2.8400
--------------------------------------------------------------------------------
      86   C     core        C     core         3    1.4200        6    2.4595
                                                3    2.8400
--------------------------------------------------------------------------------
      87   C     core        C     core         3    1.4200        6    2.4595
                                                3    2.8400
--------------------------------------------------------------------------------
      88   C     core        C     core         3    1.4200        6    2.4595
                                                3    2.8400
--------------------------------------------------------------------------------
      89   C     core        C     core         3    1.4200        6    2.4595
                                                3    2.8400
--------------------------------------------------------------------------------
      90   C     core        C     core         3    1.4200        6    2.4595
                                                3    2.8400
--------------------------------------------------------------------------------
      91   C     core        C     core         3    1.4200        6    2.4595
                                                3    2.8400
--------------------------------------------------------------------------------
      92   C     core        C     core         3    1.4200        6    2.4595
                                                3    2.8400
--------------------------------------------------------------------------------
      93   C     core        C     core         3    1.4200        6    2.4595
                                                3    2.8400
--------------------------------------------------------------------------------
      94   C     core        C     core         3    1.4200        6    2.4595
                                                3    2.8400
--------------------------------------------------------------------------------
      95   C     core        C     core         3    1.4200        6    2.4595
                                                3    2.8400
--------------------------------------------------------------------------------
      96   C     core        C     core         3    1.4200        6    2.4595
                                                3    2.8400
--------------------------------------------------------------------------------
      97   C     core        C     core         3    1.4200        6    2.4595
                                                3    2.8400
--------------------------------------------------------------------------------
      98   C     core        C     core         3    1.4200        6    2.4595
                                                3    2.8400
--------------------------------------------------------------------------------
      99   C     core        C     core         3    1.4200        6    2.4595
                                                3    2.8400
--------------------------------------------------------------------------------
     100   C     core        C     core         3    1.4200        6    2.4595
                                                3    2.8400
--------------------------------------------------------------------------------
     101   C     core        C     core         3    1.4200        6    2.4595
                                                3    2.8400
--------------------------------------------------------------------------------
     102   C     core        C     core         3    1.4200        6    2.4595
                                                3    2.8400
--------------------------------------------------------------------------------
     103   C     core        C     core         3    1.4200        6    2.4595
                                                3    2.8400
--------------------------------------------------------------------------------
     104   C     core        C     core         3    1.4200        6    2.4595
                                                3    2.8400
--------------------------------------------------------------------------------
     105   C     core        C     core         3    1.4200        6    2.4595
                                                3    2.8400
--------------------------------------------------------------------------------
     106   C     core        C     core         3    1.4200        6    2.4595
                                                3    2.8400
--------------------------------------------------------------------------------
     107   C     core        C     core         3    1.4200        6    2.4595
                                                3    2.8400
--------------------------------------------------------------------------------
     108   C     core        C     core         3    1.4200        6    2.4595
                                                3    2.8400
--------------------------------------------------------------------------------
     109   C     core        C     core         3    1.4200        6    2.4595
                                                3    2.8400
--------------------------------------------------------------------------------
     110   C     core        C     core         3    1.4200        6    2.4595
                                                3    2.8400
--------------------------------------------------------------------------------
     111   C     core        C     core         3    1.4200        6    2.4595
                                                3    2.8400
--------------------------------------------------------------------------------
     112   C     core        C     core         3    1.4200        6    2.4595
                                                3    2.8400
--------------------------------------------------------------------------------
     113   C     core        C     core         3    1.4200        6    2.4595
                                                3    2.8400
--------------------------------------------------------------------------------
     114   C     core        C     core         3    1.4200        6    2.4595
                                                3    2.8400
--------------------------------------------------------------------------------
     115   C     core        C     core         3    1.4200        6    2.4595
                                                3    2.8400
--------------------------------------------------------------------------------
     116   C     core        C     core         3    1.4200        6    2.4595
                                                3    2.8400
--------------------------------------------------------------------------------
     117   C     core        C     core         3    1.4200        6    2.4595
                                                3    2.8400
--------------------------------------------------------------------------------
     118   C     core        C     core         3    1.4200        6    2.4595
                                                3    2.8400
--------------------------------------------------------------------------------
     119   C     core        C     core         3    1.4200        6    2.4595
                                                3    2.8400
--------------------------------------------------------------------------------
     120   C     core        C     core         3    1.4200        6    2.4595
                                                3    2.8400
--------------------------------------------------------------------------------
     121   C     core        C     core         3    1.4200        6    2.4595
                                                3    2.8400
--------------------------------------------------------------------------------
     122   C     core        C     core         3    1.4200        6    2.4595
                                                3    2.8400
--------------------------------------------------------------------------------
     123   C     core        C     core         3    1.4200        6    2.4595
                                                3    2.8400
--------------------------------------------------------------------------------
     124   C     core        C     core         3    1.4200        6    2.4595
                                                3    2.8400
--------------------------------------------------------------------------------
     125   C     core        C     core         3    1.4200        6    2.4595
                                                3    2.8400
--------------------------------------------------------------------------------
     126   C     core        C     core         3    1.4200        6    2.4595
                                                3    2.8400
--------------------------------------------------------------------------------
     127   C     core        C     core         3    1.4200        6    2.4595
                                                3    2.8400
--------------------------------------------------------------------------------
     128   C     core        C     core         3    1.4200        6    2.4595
                                                3    2.8400
--------------------------------------------------------------------------------


  Brillouin zone sampling points :

--------------------------------------------------------------------------------
  Point number          x          y          z            Weight
--------------------------------------------------------------------------------
        1           0.000000   0.000000   0.000000     1.00000000
--------------------------------------------------------------------------------


********************************************************************************
*  General input information                                                   *
********************************************************************************

  Species output for all configurations : 

--------------------------------------------------------------------------------
  Species    Type    Atomic    Atomic    Charge       Radii (Angs)     Library
                     Number     Mass       (e)     Cova   Ionic  VDW   Symbol
--------------------------------------------------------------------------------
    C        Core        6      12.01   0.000000   0.770  0.000  1.530          
--------------------------------------------------------------------------------


  Lattice summation method               =    Ewald          (3-D)
                                         =    Parry          (2-D)
                                         =    Saunders et al (1-D)
  Accuracy factor for lattice sums       =   12.000


  Analytic derivatives to be used

  Time limit = Infinity

  Maximum range for interatomic potentials =    100000.000000 Angstroms

  Brenner et al 2002 potential to be used with explicit splines for P


********************************************************************************
*  Output for configuration   1                                                *
********************************************************************************


  Components of energy : 

--------------------------------------------------------------------------------
  Interatomic potentials     =           0.00000000 eV    
  Brenner potentials         =        -946.57342108 eV    
  Monopole - monopole (real) =           0.00000000 eV    
  Monopole - monopole (recip)=           0.00000000 eV    
  Monopole - monopole (total)=           0.00000000 eV    
--------------------------------------------------------------------------------
  Total lattice energy       =        -946.57342108 eV    
--------------------------------------------------------------------------------
  Total lattice energy       =          -91329.8654 kJ/(mole unit cells)
--------------------------------------------------------------------------------


  Number of variables =      381

  Maximum number of calculations  =          1000
  Maximum Hessian update interval =            10
  Maximum step size               =   1.000000000
  Maximum parameter tolerance     =   0.000010000
  Maximum function  tolerance     =   0.000010000
  Maximum gradient  tolerance     =   0.001000000
  Maximum gradient  component     =   0.010000000

  Newton-Raphson optimiser to be used

  BFGS hessian update to be used

  Lower half triangular hessian to be used

  Start of bulk optimisation :

  Cycle:      0 Energy:      -946.573421  Gnorm:      0.000163  CPU:    0.077


  **** Optimisation achieved ****


  Final energy =    -946.57342108 eV      
  Final Gnorm  =       0.00016295

  Components of energy : 

--------------------------------------------------------------------------------
  Interatomic potentials     =           0.00000000 eV    
  Brenner potentials         =        -946.57342108 eV    
  Monopole - monopole (real) =           0.00000000 eV    
  Monopole - monopole (recip)=           0.00000000 eV    
  Monopole - monopole (total)=           0.00000000 eV    
--------------------------------------------------------------------------------
  Total lattice energy       =        -946.57342108 eV    
--------------------------------------------------------------------------------
  Total lattice energy       =          -91329.8654 kJ/(mole unit cells)
--------------------------------------------------------------------------------

  Final fractional coordinates of atoms :

--------------------------------------------------------------------------------
   No.  Atomic        x           y          z          Radius
        Label       (Frac)      (Frac)     (Frac)       (Angs) 
--------------------------------------------------------------------------------
     1  C     c     0.000000    0.000000    0.000000    0.000000
     2  C     c     0.166667    0.000000    0.000000    0.000000
     3  C     c     0.041667    0.062500    0.000000    0.000000
     4  C     c     0.125000    0.062500    0.000000    0.000000
     5  C     c     0.000000    0.125000    0.000000    0.000000
     6  C     c     0.166667    0.125000    0.000000    0.000000
     7  C     c     0.041667    0.187500    0.000000    0.000000
     8  C     c     0.125000    0.187500    0.000000    0.000000
     9  C     c     0.000000    0.250000    0.000000    0.000000
    10  C     c     0.166667    0.250000    0.000000    0.000000
    11  C     c     0.041667    0.312500    0.000000    0.000000
    12  C     c     0.125000    0.312500    0.000000    0.000000
    13  C     c     0.000000    0.375000    0.000000    0.000000
    14  C     c     0.166667    0.375000    0.000000    0.000000
    15  C     c     0.041667    0.437500    0.000000    0.000000
    16  C     c     0.125000    0.437500    0.000000    0.000000
    17  C     c     0.000000    0.500000    0.000000    0.000000
    18  C     c     0.166667    0.500000    0.000000    0.000000
    19  C     c     0.041667    0.562500    0.000000    0.000000
    20  C     c     0.125000    0.562500    0.000000    0.000000
    21  C     c     0.000000    0.625000    0.000000    0.000000
    22  C     c     0.166667    0.625000    0.000000    0.000000
    23  C     c     0.041667    0.687500    0.000000    0.000000
    24  C     c     0.125000    0.687500    0.000000    0.000000
    25  C     c     0.000000    0.750000    0.000000    0.000000
    26  C     c     0.166667    0.750000    0.000000    0.000000
    27  C     c     0.041667    0.812500    0.000000    0.000000
    28  C     c     0.125000    0.812500    0.000000    0.000000
    29  C     c     0.000000    0.875000    0.000000    0.000000
    30  C     c     0.166667    0.875000    0.000000    0.000000
    31  C     c     0.041667    0.937500    0.000000    0.000000
    32  C     c     0.125000    0.937500    0.000000    0.000000
    33  C     c     0.250000    0.000000    0.000000    0.000000
    34  C     c     0.416667    0.000000    0.000000    0.000000
    35  C     c     0.291667    0.062500    0.000000    0.000000
    36  C     c     0.375000    0.062500    0.000000    0.000000
    37  C     c     0.250000    0.125000    0.000000    0.000000
    38  C     c     0.416667    0.125000    0.000000    0.000000
    39  C     c     0.291667    0.187500    0.000000    0.000000
    40  C     c     0.375000    0.187500    0.000000    0.000000
    41  C     c     0.250000    0.250000    0.000000    0.000000
    42  C     c     0.416667    0.250000    0.000000    0.000000
    43  C     c     0.291667    0.312500    0.000000    0.000000
    44  C     c     0.375000    0.312500    0.000000    0.000000
    45  C     c     0.250000    0.375000    0.000000    0.000000
    46  C     c     0.416667    0.375000    0.000000    0.000000
    47  C     c     0.291667    0.437500    0.000000    0.000000
    48  C     c     0.375000    0.437500    0.000000    0.000000
    49  C     c     0.250000    0.500000    0.000000    0.000000
    50  C     c     0.416667    0.500000    0.000000    0.000000
    51  C     c     0.291667    0.562500    0.000000    0.000000
    52  C     c     0.375000    0.562500    0.000000    0.000000
    53  C     c     0.250000    0.625000    0.000000    0.000000
    54  C     c     0.416667    0.625000    0.000000    0.000000
    55  C     c     0.291667    0.687500    0.000000    0.000000
    56  C     c     0.375000    0.687500    0.000000    0.000000
    57  C     c     0.250000    0.750000    0.000000    0.000000
    58  C     c     0.416667    0.750000    0.000000    0.000000
    59  C     c     0.291667    0.812500    0.000000    0.000000
    60  C     c     0.375000    0.812500    0.000000    0.000000
    61  C     c     0.250000    0.875000    0.000000    0.000000
    62  C     c     0.416667    0.875000    0.000000    0.000000
    63  C     c     0.291667    0.937500    0.000000    0.000000
    64  C     c     0.375000    0.937500    0.000000    0.000000
    65  C     c     0.500000    0.000000    0.000000    0.000000
    66  C     c     0.666667    0.000000    0.000000    0.000000
    67  C     c     0.541667    0.062500    0.000000    0.000000
    68  C     c     0.625000    0.062500    0.000000    0.000000
    69  C     c     0.500000    0.125000    0.000000    0.000000
    70  C     c     0.666667    0.125000    0.000000    0.000000
    71  C     c     0.541667    0.187500    0.000000    0.000000
    72  C     c     0.625000    0.187500    0.000000    0.000000
    73  C     c     0.500000    0.250000    0.000000    0.000000
    74  C     c     0.666667    0.250000    0.000000    0.000000
    75  C     c     0.541667    0.312500    0.000000    0.000000
    76  C     c     0.625000    0.312500    0.000000    0.000000
    77  C     c     0.500000    0.375000    0.000000    0.000000
    78  C     c     0.666667    0.375000    0.000000    0.000000
    79  C     c     0.541667    0.437500    0.000000    0.000000
    80  C     c     0.625000    0.437500    0.000000    0.000000
    81  C     c     0.500000    0.500000    0.000000    0.000000
    82  C     c     0.666667    0.500000    0.000000    0.000000
    83  C     c     0.541667    0.562500    0.000000    0.000000
    84  C     c     0.625000    0.562500    0.000000    0.000000
    85  C     c     0.500000    0.625000    0.000000    0.000000
    86  C     c     0.666667    0.625000    0.000000    0.000000
    87  C     c     0.541667    0.687500    0.000000    0.000000
    88  C     c     0.625000    0.687500    0.000000    0.000000
    89  C     c     0.500000    0.750000    0.000000    0.000000
    90  C     c     0.666667    0.750000    0.000000    0.000000
    91  C     c     0.541667    0.812500    0.000000    0.000000
    92  C     c     0.625000    0.812500    0.000000    0.000000
    93  C     c     0.500000    0.875000    0.000000    0.000000
    94  C     c     0.666667    0.875000    0.000000    0.000000
    95  C     c     0.541667    0.937500    0.000000    0.000000
    96  C     c     0.625000    0.937500    0.000000    0.000000
    97  C     c     0.750000    0.000000    0.000000    0.000000
    98  C     c     0.916667    0.000000    0.000000    0.000000
    99  C     c     0.791667    0.062500    0.000000    0.000000
   100  C     c     0.875000    0.062500    0.000000    0.000000
   101  C     c     0.750000    0.125000    0.000000    0.000000
   102  C     c     0.916667    0.125000    0.000000    0.000000
   103  C     c     0.791667    0.187500    0.000000    0.000000
   104  C     c     0.875000    0.187500    0.000000    0.000000
   105  C     c     0.750000    0.250000    0.000000    0.000000
   106  C     c     0.916667    0.250000    0.000000    0.000000
   107  C     c     0.791667    0.312500    0.000000    0.000000
   108  C     c     0.875000    0.312500    0.000000    0.000000
   109  C     c     0.750000    0.375000    0.000000    0.000000
   110  C     c     0.916667    0.375000    0.000000    0.000000
   111  C     c     0.791667    0.437500    0.000000    0.000000
   112  C     c     0.875000    0.437500    0.000000    0.000000
   113  C     c     0.750000    0.500000    0.000000    0.000000
   114  C     c     0.916667    0.500000    0.000000    0.000000
   115  C     c     0.791667    0.562500    0.000000    0.000000
   116  C     c     0.875000    0.562500    0.000000    0.000000
   117  C     c     0.750000    0.625000    0.000000    0.000000
   118  C     c     0.916667    0.625000    0.000000    0.000000
   119  C     c     0.791667    0.687500    0.000000    0.000000
   120  C     c     0.875000    0.687500    0.000000    0.000000
   121  C     c     0.750000    0.750000    0.000000    0.000000
   122  C     c     0.916667    0.750000    0.000000    0.000000
   123  C     c     0.791667    0.812500    0.000000    0.000000
   124  C     c     0.875000    0.812500    0.000000    0.000000
   125  C     c     0.750000    0.875000    0.000000    0.000000
   126  C     c     0.916667    0.875000    0.000000    0.000000
   127  C     c     0.791667    0.937500    0.000000    0.000000
   128  C     c     0.875000    0.937500    0.000000    0.000000
--------------------------------------------------------------------------------

  Final internal derivatives :

--------------------------------------------------------------------------------
   No.  Atomic          a             b             c           Radius
        Label          (eV)          (eV)          (eV)        (eV/Angs)
--------------------------------------------------------------------------------
      1 C     c       0.000000      0.000000      0.000000      0.000000
      2 C     c       0.001729     -0.001805      0.000000      0.000000
      3 C     c      -0.000735      0.006269      0.000000      0.000000
      4 C     c       0.000735      0.006269      0.000000      0.000000
      5 C     c       0.000539     -0.005991      0.000000      0.000000
      6 C     c      -0.000539     -0.005991      0.000000      0.000000
      7 C     c      -0.000539      0.005991      0.000000      0.000000
      8 C     c       0.000539      0.005991      0.000000      0.000000
      9 C     c       0.000812     -0.006378      0.000000      0.000000
     10 C     c      -0.000812     -0.006378      0.000000      0.000000
     11 C     c       0.002516     -0.000000      0.000000      0.000000
     12 C     c      -0.002516     -0.000000      0.000000      0.000000
     13 C     c       0.000812      0.006378      0.000000      0.000000
     14 C     c      -0.000812      0.006378      0.000000      0.000000
     15 C     c      -0.000539     -0.005991      0.000000      0.000000
     16 C     c       0.000539     -0.005991      0.000000      0.000000
     17 C     c       0.000539      0.005991      0.000000      0.000000
     18 C     c      -0.000539      0.005991      0.000000      0.000000
     19 C     c      -0.000812     -0.006378      0.000000      0.000000
     20 C     c       0.000812     -0.006378      0.000000      0.000000
     21 C     c      -0.002516      0.000000      0.000000      0.000000
     22 C     c       0.002516      0.000000      0.000000      0.000000
     23 C     c      -0.000812      0.006378      0.000000      0.000000
     24 C     c       0.000812      0.006378      0.000000      0.000000
     25 C     c       0.000812     -0.006378      0.000000      0.000000
     26 C     c      -0.000812     -0.006378      0.000000      0.000000
     27 C     c       0.002516     -0.000000      0.000000      0.000000
     28 C     c      -0.002516     -0.000000      0.000000      0.000000
     29 C     c       0.000735      0.006488      0.000000      0.000000
     30 C     c      -0.000735      0.006488      0.000000      0.000000
     31 C     c      -0.001599     -0.004573      0.000000      0.000000
     32 C     c       0.001599     -0.004573      0.000000      0.000000
     33 C     c      -0.001729     -0.001805      0.000000      0.000000
     34 C     c       0.001729     -0.001805      0.000000      0.000000
     35 C     c      -0.000735      0.006269      0.000000      0.000000
     36 C     c       0.000735      0.006269      0.000000      0.000000
     37 C     c       0.000539     -0.005991      0.000000      0.000000
     38 C     c      -0.000539     -0.005991      0.000000      0.000000
     39 C     c      -0.000539      0.005991      0.000000      0.000000
     40 C     c       0.000539      0.005991      0.000000      0.000000
     41 C     c       0.000812     -0.006378      0.000000      0.000000
     42 C     c      -0.000812     -0.006378      0.000000      0.000000
     43 C     c       0.002516     -0.000000      0.000000      0.000000
     44 C     c      -0.002516     -0.000000      0.000000      0.000000
     45 C     c       0.000812      0.006378      0.000000      0.000000
     46 C     c      -0.000812      0.006378      0.000000      0.000000
     47 C     c      -0.000539     -0.005991      0.000000      0.000000
     48 C     c       0.000539     -0.005991      0.000000      0.000000
     49 C     c       0.000539      0.005991      0.000000      0.000000
     50 C     c      -0.000539      0.005991      0.000000      0.000000
     51 C     c      -0.000812     -0.006378      0.000000      0.000000
     52 C     c       0.000812     -0.006378      0.000000      0.000000
     53 C     c      -0.002516      0.000000      0.000000      0.000000
     54 C     c       0.002516      0.000000      0.000000      0.000000
     55 C     c      -0.000812      0.006378      0.000000      0.000000
     56 C     c       0.000812      0.006378      0.000000      0.000000
     57 C     c       0.000812     -0.006378      0.000000      0.000000
     58 C     c      -0.000812     -0.006378      0.000000      0.000000
     59 C     c       0.002516     -0.000000      0.000000      0.000000
     60 C     c      -0.002516     -0.000000      0.000000      0.000000
     61 C     c       0.000735      0.006488      0.000000      0.000000
     62 C     c      -0.000735      0.006488      0.000000      0.000000
     63 C     c      -0.001599     -0.004573      0.000000      0.000000
     64 C     c       0.001599     -0.004573      0.000000      0.000000
     65 C     c      -0.001729     -0.001805      0.000000      0.000000
     66 C     c       0.001729     -0.001805      0.000000      0.000000
     67 C     c      -0.000735      0.006269      0.000000      0.000000
     68 C     c       0.000735      0.006269      0.000000      0.000000
     69 C     c       0.000539     -0.005991      0.000000      0.000000
     70 C     c      -0.000539     -0.005991      0.000000      0.000000
     71 C     c      -0.000539      0.005991      0.000000      0.000000
     72 C     c       0.000539      0.005991      0.000000      0.000000
     73 C     c       0.000812     -0.006378      0.000000      0.000000
     74 C     c      -0.000812     -0.006378      0.000000      0.000000
     75 C     c       0.002516     -0.000000      0.000000      0.000000
     76 C     c      -0.002516     -0.000000      0.000000      0.000000
     77 C     c       0.000812      0.006378      0.000000      0.000000
     78 C     c      -0.000812      0.006378      0.000000      0.000000
     79 C     c      -0.000539     -0.005991      0.000000      0.000000
     80 C     c       0.000539     -0.005991      0.000000      0.000000
     81 C     c       0.000539      0.005991      0.000000      0.000000
     82 C     c      -0.000539      0.005991      0.000000      0.000000
     83 C     c      -0.000812     -0.006378      0.000000      0.000000
     84 C     c       0.000812     -0.006378      0.000000      0.000000
     85 C     c      -0.002516      0.000000      0.000000      0.000000
     86 C     c       0.002516      0.000000      0.000000      0.000000
     87 C     c      -0.000812      0.006378      0.000000      0.000000
     88 C     c       0.000812      0.006378      0.000000      0.000000
     89 C     c       0.000812     -0.006378      0.000000      0.000000
     90 C     c      -0.000812     -0.006378      0.000000      0.000000
     91 C     c       0.002516     -0.000000      0.000000      0.000000
     92 C     c      -0.002516     -0.000000      0.000000      0.000000
     93 C     c       0.000735      0.006488      0.000000      0.000000
     94 C     c      -0.000735      0.006488      0.000000      0.000000
     95 C     c      -0.001599     -0.004573      0.000000      0.000000
     96 C     c       0.001599     -0.004573      0.000000      0.000000
     97 C     c      -0.001729     -0.001805      0.000000      0.000000
     98 C     c       0.001729     -0.001805      0.000000      0.000000
     99 C     c      -0.000735      0.006269      0.000000      0.000000
    100 C     c       0.000735      0.006269      0.000000      0.000000
    101 C     c       0.000539     -0.005991      0.000000      0.000000
    102 C     c      -0.000539     -0.005991      0.000000      0.000000
    103 C     c      -0.000539      0.005991      0.000000      0.000000
    104 C     c       0.000539      0.005991      0.000000      0.000000
    105 C     c       0.000812     -0.006378      0.000000      0.000000
    106 C     c      -0.000812     -0.006378      0.000000      0.000000
    107 C     c       0.002516     -0.000000      0.000000      0.000000
    108 C     c      -0.002516     -0.000000      0.000000      0.000000
    109 C     c       0.000812      0.006378      0.000000      0.000000
    110 C     c      -0.000812      0.006378      0.000000      0.000000
    111 C     c      -0.000539     -0.005991      0.000000      0.000000
    112 C     c       0.000539     -0.005991      0.000000      0.000000
    113 C     c       0.000539      0.005991      0.000000      0.000000
    114 C     c      -0.000539      0.005991      0.000000      0.000000
    115 C     c      -0.000812     -0.006378      0.000000      0.000000
    116 C     c       0.000812     -0.006378      0.000000      0.000000
    117 C     c      -0.002516      0.000000      0.000000      0.000000
    118 C     c       0.002516      0.000000      0.000000      0.000000
    119 C     c      -0.000812      0.006378      0.000000      0.000000
    120 C     c       0.000812      0.006378      0.000000      0.000000
    121 C     c       0.000812     -0.006378      0.000000      0.000000
    122 C     c      -0.000812     -0.006378      0.000000      0.000000
    123 C     c       0.002516     -0.000000      0.000000      0.000000
    124 C     c      -0.002516     -0.000000      0.000000      0.000000
    125 C     c       0.000735      0.006488      0.000000      0.000000
    126 C     c      -0.000735      0.006488      0.000000      0.000000
    127 C     c      -0.001599     -0.004573      0.000000      0.000000
    128 C     c       0.001599     -0.004573      0.000000      0.000000
--------------------------------------------------------------------------------
  Maximum abs         0.002516      0.006488      0.000000      0.000000
--------------------------------------------------------------------------------


  Distance calculation :


  Cutoff for distances  =      3.000000 Angstroms

--------------------------------------------------------------------------------
  Asymmetric unit site  Full lattice sites    No.  Distance      No.  Distance
      No.   At.No.            At.No.                (Angs)             (Angs) 
--------------------------------------------------------------------------------
       1   C     core        C     core         3    1.4200        6    2.4595
                                                3    2.8400
--------------------------------------------------------------------------------
       2   C     core        C     core         3    1.4200        6    2.4595
                                                3    2.8400
--------------------------------------------------------------------------------
       3   C     core        C     core         3    1.4200        6    2.4595
                                                3    2.8400
--------------------------------------------------------------------------------
       4   C     core        C     core         3    1.4200        6    2.4595
                                                3    2.8400
--------------------------------------------------------------------------------
       5   C     core        C     core         3    1.4200        6    2.4595
                                                3    2.8400
--------------------------------------------------------------------------------
       6   C     core        C     core         3    1.4200        6    2.4595
                                                3    2.8400
--------------------------------------------------------------------------------
       7   C     core        C     core         3    1.4200        6    2.4595
                                                3    2.8400
--------------------------------------------------------------------------------
       8   C     core        C     core         3    1.4200        6    2.4595
                                                3    2.8400
--------------------------------------------------------------------------------
       9   C     core        C     core         3    1.4200        6    2.4595
                                                3    2.8400
--------------------------------------------------------------------------------
      10   C     core        C     core         3    1.4200        6    2.4595
                                                3    2.8400
--------------------------------------------------------------------------------
      11   C     core        C     core         3    1.4200        6    2.4595
                                                3    2.8400
--------------------------------------------------------------------------------
      12   C     core        C     core         3    1.4200        6    2.4595
                                                3    2.8400
--------------------------------------------------------------------------------
      13   C     core        C     core         3    1.4200        6    2.4595
                                                3    2.8400
--------------------------------------------------------------------------------
      14   C     core        C     core         3    1.4200        6    2.4595
                                                3    2.8400
--------------------------------------------------------------------------------
      15   C     core        C     core         3    1.4200        6    2.4595
                                                3    2.8400
--------------------------------------------------------------------------------
      16   C     core        C     core         3    1.4200        6    2.4595
                                                3    2.8400
--------------------------------------------------------------------------------
      17   C     core        C     core         3    1.4200        6    2.4595
                                                3    2.8400
--------------------------------------------------------------------------------
      18   C     core        C     core         3    1.4200        6    2.4595
                                                3    2.8400
--------------------------------------------------------------------------------
      19   C     core        C     core         3    1.4200        6    2.4595
                                                3    2.8400
--------------------------------------------------------------------------------
      20   C     core        C     core         3    1.4200        6    2.4595
                                                3    2.8400
--------------------------------------------------------------------------------
      21   C     core        C     core         3    1.4200        6    2.4595
                                                3    2.8400
--------------------------------------------------------------------------------
      22   C     core        C     core         3    1.4200        6    2.4595
                                                3    2.8400
--------------------------------------------------------------------------------
      23   C     core        C     core         3    1.4200        6    2.4595
                                                3    2.8400
--------------------------------------------------------------------------------
      24   C     core        C     core         3    1.4200        6    2.4595
                                                3    2.8400
--------------------------------------------------------------------------------
      25   C     core        C     core         3    1.4200        6    2.4595
                                                3    2.8400
--------------------------------------------------------------------------------
      26   C     core        C     core         3    1.4200        6    2.4595
                                                3    2.8400
--------------------------------------------------------------------------------
      27   C     core        C     core         3    1.4200        6    2.4595
                                                3    2.8400
--------------------------------------------------------------------------------
      28   C     core        C     core         3    1.4200        6    2.4595
                                                3    2.8400
--------------------------------------------------------------------------------
      29   C     core        C     core         3    1.4200        6    2.4595
                                                3    2.8400
--------------------------------------------------------------------------------
      30   C     core        C     core         3    1.4200        6    2.4595
                                                3    2.8400
--------------------------------------------------------------------------------
      31   C     core        C     core         3    1.4200        6    2.4595
                                                3    2.8400
--------------------------------------------------------------------------------
      32   C     core        C     core         3    1.4200        6    2.4595
                                                3    2.8400
--------------------------------------------------------------------------------
      33   C     core        C     core         3    1.4200        6    2.4595
                                                3    2.8400
--------------------------------------------------------------------------------
      34   C     core        C     core         3    1.4200        6    2.4595
                                                3    2.8400
--------------------------------------------------------------------------------
      35   C     core        C     core         3    1.4200        6    2.4595
                                                3    2.8400
--------------------------------------------------------------------------------
      36   C     core        C     core         3    1.4200        6    2.4595
                                                3    2.8400
--------------------------------------------------------------------------------
      37   C     core        C     core         3    1.4200        6    2.4595
                                                3    2.8400
--------------------------------------------------------------------------------
      38   C     core        C     core         3    1.4200        6    2.4595
                                                3    2.8400
--------------------------------------------------------------------------------
      39   C     core        C     core         3    1.4200        6    2.4595
                                                3    2.8400
--------------------------------------------------------------------------------
      40   C     core        C     core         3    1.4200        6    2.4595
                                                3    2.8400
--------------------------------------------------------------------------------
      41   C     core        C     core         3    1.4200        6    2.4595
                                                3    2.8400
--------------------------------------------------------------------------------
      42   C     core        C     core         3    1.4200        6    2.4595
                                                3    2.8400
--------------------------------------------------------------------------------
      43   C     core        C     core         3    1.4200        6    2.4595
                                                3    2.8400
--------------------------------------------------------------------------------
      44   C     core        C     core         3    1.4200        6    2.4595
                                                3    2.8400
--------------------------------------------------------------------------------
      45   C     core        C     core         3    1.4200        6    2.4595
                                                3    2.8400
--------------------------------------------------------------------------------
      46   C     core        C     core         3    1.4200        6    2.4595
                                                3    2.8400
--------------------------------------------------------------------------------
      47   C     core        C     core         3    1.4200        6    2.4595
                                                3    2.8400
--------------------------------------------------------------------------------
      48   C     core        C     core         3    1.4200        6    2.4595
                                                3    2.8400
--------------------------------------------------------------------------------
      49   C     core        C     core         3    1.4200        6    2.4595
                                                3    2.8400
--------------------------------------------------------------------------------
      50   C     core        C     core         3    1.4200        6    2.4595
                                                3    2.8400
--------------------------------------------------------------------------------
      51   C     core        C     core         3    1.4200        6    2.4595
                                                3    2.8400
--------------------------------------------------------------------------------
      52   C     core        C     core         3    1.4200        6    2.4595
                                                3    2.8400
--------------------------------------------------------------------------------
      53   C     core        C     core         3    1.4200        6    2.4595
                                                3    2.8400
--------------------------------------------------------------------------------
      54   C     core        C     core         3    1.4200        6    2.4595
                                                3    2.8400
--------------------------------------------------------------------------------
      55   C     core        C     core         3    1.4200        6    2.4595
                                                3    2.8400
--------------------------------------------------------------------------------
      56   C     core        C     core         3    1.4200        6    2.4595
                                                3    2.8400
--------------------------------------------------------------------------------
      57   C     core        C     core         3    1.4200        6    2.4595
                                                3    2.8400
--------------------------------------------------------------------------------
      58   C     core        C     core         3    1.4200        6    2.4595
                                                3    2.8400
--------------------------------------------------------------------------------
      59   C     core        C     core         3    1.4200        6    2.4595
                                                3    2.8400
--------------------------------------------------------------------------------
      60   C     core        C     core         3    1.4200        6    2.4595
                                                3    2.8400
--------------------------------------------------------------------------------
      61   C     core        C     core         3    1.4200        6    2.4595
                                                3    2.8400
--------------------------------------------------------------------------------
      62   C     core        C     core         3    1.4200        6    2.4595
                                                3    2.8400
--------------------------------------------------------------------------------
      63   C     core        C     core         3    1.4200        6    2.4595
                                                3    2.8400
--------------------------------------------------------------------------------
      64   C     core        C     core         3    1.4200        6    2.4595
                                                3    2.8400
--------------------------------------------------------------------------------
      65   C     core        C     core         3    1.4200        6    2.4595
                                                3    2.8400
--------------------------------------------------------------------------------
      66   C     core        C     core         3    1.4200        6    2.4595
                                                3    2.8400
--------------------------------------------------------------------------------
      67   C     core        C     core         3    1.4200        6    2.4595
                                                3    2.8400
--------------------------------------------------------------------------------
      68   C     core        C     core         3    1.4200        6    2.4595
                                                3    2.8400
--------------------------------------------------------------------------------
[...]
   0.000000   0.000000   0.000000   0.000000   0.000000   0.000000   0.000000   0.000000   0.000000   0.000000   0.000000   0.000000
   0.000000   0.000000   0.000000  -0.000000   0.000000   0.000000   0.000000   0.000000   0.000000   0.000000   0.000000   0.000000
  -0.130257  -0.075204   0.000000  -0.994005  -1.225688   0.000000  -0.000000  -0.000000   0.000000  -0.029215   0.133537   0.000000
   0.000000   0.000000   0.000000   0.000000   0.000000   0.000000   0.000000   0.000000   0.000000   0.000000   0.000000   0.000000
   0.000000   0.000000   0.000000   0.000000   0.000000   0.000000   0.000000   0.000000   0.000000   0.000000   0.000000   0.000000
   0.000000   0.000000   0.000000   0.000000   0.000000   0.000000   0.000000   0.000000   0.000000   0.000000   0.000000   0.000000
   0.000000   0.000000   0.000000   0.000000   0.000000   0.000000   0.000000   0.000000   0.000000   0.000000   0.000000   0.000000
   0.000000   0.000000   0.000000   0.000000   0.000000   0.000000   0.000000   0.000000   0.000000   0.000000   0.000000   0.000000
   0.000000   0.000000   0.000000  -0.000000  -0.000000   0.000000  -0.000000  -0.000000   0.000000  -0.029212  -0.133540   0.000000
  -0.130256   0.075204   0.000000  -0.994050   1.225767   0.000000  -3.116993  -0.000000   0.000000   5.684500  -0.000076   0.000000
   0.075204  -0.062894   0.000000   0.000000   0.000000   0.000000  -0.000000   0.000000   0.000000   0.000000   0.000000   0.000000
   0.000000   0.000000   0.000000   0.000000   0.000000   0.000000   0.000000   0.000000   0.000000   0.000000   0.000000   0.000000
   0.000000   0.000000   0.000000   0.000000   0.000000   0.000000   0.000000   0.000000   0.000000   0.000000   0.000000   0.000000
   0.000000   0.000000   0.000000   0.000000   0.000000   0.000000   0.000000   0.000000   0.000000   0.000000   0.000000   0.000000
   0.000000   0.000000   0.000000   0.000000   0.000000   0.000000   0.000000   0.000000   0.000000   0.000000   0.000000   0.000000
   0.000000   0.000000   0.000000   0.000000   0.000000   0.000000   0.000000   0.000000   0.000000   0.000000   0.000000   0.000000
   0.000000   0.000000   0.000000   0.000000   0.000000   0.000000   0.000000   0.000000   0.000000   0.000000   0.000000   0.000000
  -0.075204  -0.062897   0.000000   0.000000   0.000000   0.000000   0.000000   0.000000   0.000000   0.000000   0.000000   0.000000
   0.000000   0.000000   0.000000   0.000000   0.000000   0.000000   0.000000   0.000000   0.000000   0.000000   0.000000   0.000000
   0.000000   0.000000   0.000000   0.000000   0.000000   0.000000   0.000000   0.000000   0.000000   0.000000   0.000000   0.000000
   0.000000   0.000000   0.000000   0.000000   0.000000   0.000000   0.000000   0.000000   0.000000   0.000000   0.000000   0.000000
   0.000000   0.000000   0.000000   0.000000   0.000000   0.000000   0.000000   0.000000   0.000000   0.000000   0.000000   0.000000
   0.000000   0.000000   0.000000   0.000000   0.000000   0.000000   0.000000   0.000000   0.000000   0.000000   0.000000   0.000000
   0.000000   0.000000   0.000000   0.000000   0.000000   0.000000   0.000000   0.000000   0.000000   0.000000   0.000000   0.000000
   0.000000   0.000000   0.000000   0.000000   0.000000   0.000000   0.000000   0.000000   0.000000   0.000000   0.000000   0.000000
   0.000000   0.000000   0.000000   0.000000   0.000000   0.000000   0.000000   0.000000   0.000000   0.000000   0.000000   0.000000
   0.000000   0.000000   0.000000   0.000000   0.000000   0.000000   0.000000   0.000000   0.000000   0.000000   0.000000   0.000000
   0.000000   0.000000   0.000000   0.000000   0.000000   0.000000   0.000000   0.000000   0.000000   0.000000   0.000000   0.000000
   0.000000   0.000000   0.000000   0.000000   0.000000   0.000000   0.000000   0.000000   0.000000   0.000000   0.000000   0.000000
   0.000000   0.000000   0.000000   0.000000   0.000000   0.000000   0.000000   0.000000   0.000000   0.000000   0.000000   0.000000
   0.000000   0.000000   0.000000   0.000000   0.000000   0.000000   0.000000   0.000000   0.000000   0.000000   0.000000   0.000000
   0.000000   0.000000   0.000000   0.000000   0.000000   0.000000   0.000000   0.000000   0.000000   0.000000   0.000000   0.000000
   0.000000   0.000000   0.000000   0.000000   0.000000   0.000000   0.000000   0.000000   0.000000   0.000000   0.000000   0.000000
   0.000000   0.000000   0.000000   0.000000  -0.000000   0.000000   0.000000   0.000000   0.000000   0.000000   0.000000   0.000000
   0.191878  -0.062894   0.000000  -1.225706  -2.409314   0.000000  -0.000000  -0.000000   0.000000  -0.133539  -0.163934   0.000000
   0.000000   0.000000   0.000000   0.000000  -0.000000   0.000000   0.000000   0.000000   0.000000   0.000000   0.000000   0.000000
   0.000000   0.000000   0.000000   0.000000   0.000000   0.000000   0.000000   0.000000   0.000000   0.000000   0.000000   0.000000
   0.000000   0.000000   0.000000   0.000000   0.000000   0.000000   0.000000   0.000000   0.000000   0.000000   0.000000   0.000000
   0.000000   0.000000   0.000000   0.000000   0.000000   0.000000   0.000000   0.000000   0.000000   0.000000   0.000000   0.000000
   0.000000   0.000000   0.000000   0.000000   0.000000   0.000000   0.000000   0.000000   0.000000   0.000000   0.000000   0.000000
   0.000000   0.000000   0.000000   0.000000   0.000000   0.000000   0.000000  -0.000000   0.000000   0.133546  -0.163940   0.000000
  -0.191878  -0.062897   0.000000   1.225775  -2.409424   0.000000   0.000000  -0.286328   0.000000  -0.000076   5.684523   0.000000
   0.000000   0.000000   0.085296   0.000000   0.000000   0.000000   0.000000   0.000000   0.009723   0.000000   0.000000   0.000000
   0.000000   0.000000   0.000000   0.000000   0.000000   0.000000   0.000000   0.000000   0.000000   0.000000   0.000000   0.000000
   0.000000   0.000000   0.000000   0.000000   0.000000   0.000000   0.000000   0.000000   0.000000   0.000000   0.000000   0.000000
   0.000000   0.000000   0.000000   0.000000   0.000000   0.000000   0.000000   0.000000   0.000000   0.000000   0.000000   0.000000
   0.000000   0.000000   0.000000   0.000000   0.000000   0.000000   0.000000   0.000000   0.000000   0.000000   0.000000   0.000000
   0.000000   0.000000   0.000000   0.000000   0.000000   0.000000   0.000000   0.000000   0.000000   0.000000   0.000000   0.000000
   0.000000   0.000000   0.000000   0.000000   0.000000   0.000000   0.000000   0.000000   0.009723   0.000000   0.000000   0.000000
   0.000000   0.000000   0.085298   0.000000   0.000000   0.000000   0.000000   0.000000  -0.019446   0.000000   0.000000   0.000000
   0.000000   0.000000   0.000000   0.000000   0.000000   0.000000   0.000000   0.000000   0.000000   0.000000   0.000000   0.000000
   0.000000   0.000000   0.000000   0.000000   0.000000   0.000000   0.000000   0.000000   0.000000   0.000000   0.000000   0.000000
   0.000000   0.000000   0.000000   0.000000   0.000000   0.000000   0.000000   0.000000   0.000000   0.000000   0.000000   0.000000
   0.000000   0.000000   0.000000   0.000000   0.000000   0.000000   0.000000   0.000000   0.000000   0.000000   0.000000   0.000000
   0.000000   0.000000   0.000000   0.000000   0.000000   0.000000   0.000000   0.000000   0.000000   0.000000   0.000000   0.000000
   0.000000   0.000000   0.000000   0.000000   0.000000   0.000000   0.000000   0.000000   0.000000   0.000000   0.000000   0.000000
   0.000000   0.000000   0.000000   0.000000   0.000000   0.000000   0.000000   0.000000   0.000000   0.000000   0.000000   0.000000
   0.000000   0.000000   0.000000   0.000000   0.000000   0.000000   0.000000   0.000000   0.000000   0.000000   0.000000   0.000000
   0.000000   0.000000   0.000000   0.000000   0.000000   0.009723   0.000000   0.000000   0.000000   0.000000   0.000000   0.000000
   0.000000   0.000000   0.000000   0.000000   0.000000   0.000000   0.000000   0.000000   0.000000   0.000000   0.000000   0.000000
   0.000000   0.000000   0.000000   0.000000   0.000000   0.000000   0.000000   0.000000   0.000000   0.000000   0.000000   0.000000
   0.000000   0.000000   0.000000   0.000000   0.000000   0.000000   0.000000   0.000000   0.000000   0.000000   0.000000   0.000000
   0.000000   0.000000   0.000000   0.000000   0.000000   0.000000   0.000000   0.000000   0.000000   0.000000   0.000000   0.000000
   0.000000   0.000000   0.000000   0.000000   0.000000   0.000000   0.000000   0.000000   0.000000   0.000000   0.000000   0.000000
   0.000000   0.000000   0.000000   0.000000   0.000000   0.000000   0.000000   0.000000   0.000000   0.000000   0.000000   0.000000
   0.000000   0.000000   0.000000   0.000000   0.000000   0.009723   0.000000   0.000000   0.000000   0.000000   0.000000   0.000000
   0.000000   0.000000   0.085296   0.000000   0.000000  -0.569135   0.000000   0.000000  -0.019445   0.000000   0.000000   0.085295
   0.000000   0.000000   0.000000   0.000000   0.000000   0.009723   0.000000   0.000000   0.000000   0.000000   0.000000   0.000000
   0.000000   0.000000   0.000000   0.000000   0.000000   0.000000   0.000000   0.000000   0.000000   0.000000   0.000000   0.000000
   0.000000   0.000000   0.000000   0.000000   0.000000   0.000000   0.000000   0.000000   0.000000   0.000000   0.000000   0.000000
   0.000000   0.000000   0.000000   0.000000   0.000000   0.000000   0.000000   0.000000   0.000000   0.000000   0.000000   0.000000
   0.000000   0.000000   0.000000   0.000000   0.000000   0.000000   0.000000   0.000000   0.000000   0.000000   0.000000   0.000000
   0.000000   0.000000   0.000000   0.000000   0.000000   0.009723   0.000000   0.000000  -0.019446   0.000000   0.000000   0.085297
   0.000000   0.000000   0.085298   0.000000   0.000000  -0.569127   0.000000   0.000000  -0.569137   0.000000   0.000000   1.195620

  Frequencies (cm-1) [NB: Negative implies an imaginary mode]:

   -0.00    0.00    0.00   28.18   28.18   37.72   37.72   65.19   65.19
   65.19   65.19  108.66  108.66  143.50  143.50  143.51  143.51  143.51
  143.51  165.54  165.54  165.55  165.55  181.83  181.83  204.29  204.29
  224.05  224.06  232.11  232.11  232.11  232.11  254.41  254.41  254.41
  254.41  274.70  274.70  274.70  274.70  286.79  286.79  302.69  302.69
  302.69  302.69  325.02  325.02  325.10  325.10  325.11  325.11  352.10
  352.10  352.10  352.10  352.10  352.10  365.38  365.38  366.28  366.28
  366.28  366.28  376.56  376.56  379.43  379.43  379.43  379.43  379.43
  379.43  380.95  380.95  380.95  396.16  396.16  408.18  408.18  408.18
  408.18  448.00  448.00  452.66  452.66  452.67  452.67  470.97  470.98
  488.10  488.10  488.10  488.10  498.21  498.21  498.22  498.22  498.50
  498.50  525.81  525.81  525.81  525.81  539.86  539.86  539.86  539.86
  540.20  540.20  540.88  540.88  540.88  544.09  544.10  564.21  564.22
  579.98  579.98  579.99  579.99  606.48  606.48  606.49  606.49  613.04
  613.04  613.04  613.04  619.10  619.10  622.48  622.48  624.14  624.14
  642.14  642.14  642.14  650.62  650.62  650.62  650.62  658.41  658.41
  658.41  658.41  658.41  658.41  692.06  692.06  692.07  692.07  698.42
  698.42  698.42  698.42  701.07  701.07  701.07  701.07  701.07  701.07
  709.24  709.24  709.24  709.24  724.27  724.27  724.27  724.27  724.27
  724.27  727.72  727.72  754.30  754.30  754.30  754.31  755.07  755.07
  755.07  755.07  771.79  771.79  772.25  772.25  772.25  772.25  778.11
  778.11  802.56  802.57  829.73  829.73  829.73  829.73  849.96  849.96
  849.96  849.96  849.96  849.96  857.53  857.54  877.30  877.30  886.00
  886.00  886.00  886.00  912.59  912.59  912.59  912.59  934.25  934.25
  941.54  941.54  948.09  948.09  948.10  948.10  963.63 1007.81 1007.81
 1007.81 1007.81 1013.83 1013.83 1032.60 1032.60 1032.61 1032.61 1032.61
 1032.61 1069.03 1069.03 1069.04 1069.04 1109.50 1109.50 1109.50 1109.50
 1136.44 1136.44 1136.45 1136.45 1153.44 1153.45 1157.99 1157.99 1161.05
 1161.05 1168.15 1168.15 1168.15 1240.08 1240.10 1268.64 1268.64 1330.18
 1330.18 1330.19 1330.19 1361.82 1361.82 1391.17 1391.17 1391.17 1391.17
 1391.17 1391.17 1397.20 1397.20 1397.20 1397.20 1406.62 1406.62 1406.62
 1454.75 1454.76 1454.76 1454.76 1460.24 1460.24 1460.24 1460.24 1494.09
 1494.09 1513.43 1513.43 1513.45 1513.45 1519.94 1519.94 1519.95 1519.95
 1521.25 1521.27 1569.49 1569.49 1569.51 1569.51 1592.24 1592.24 1592.24
 1592.24 1592.24 1592.24 1607.49 1607.50 1633.82 1633.82 1633.82 1633.82
 1648.52 1648.52 1652.73 1652.73 1660.57 1660.57 1660.57 1661.77 1661.77
 1664.11 1664.11 1664.11 1664.11 1664.11 1664.11 1665.76 1665.76 1666.17
 1666.17 1666.26 1666.26 1666.43 1666.43 1666.43 1666.43 1667.44 1667.44
 1667.45 1667.45 1667.65 1667.65 1667.66 1667.66 1668.88 1668.88 1672.52
 1672.52 1672.53 1672.53 1676.72 1676.73 1676.73 1676.73 1680.68 1680.68
 1680.68 1680.68 1680.84 1680.85 1683.52 1683.52 1683.52 1683.52 1684.55
 1684.55 1701.95 1701.95 1701.97 1701.97 1702.95 1702.95 1702.96 1702.96
 1702.96 1702.96 1716.00 1716.01 1721.18 1721.20


--------------------------------------------------------------------------------
  Phonon properties (per mole of unit cells): Temperature =      0.000 K
--------------------------------------------------------------------------------
  Zero point energy             =       22.091282 eV
--------------------------------------------------------------------------------

  Phonon density of states : 

--------------------------------------------------------------------------------
 Frequency (cm-1) Density of States                                             
--------------------------------------------------------------------------------
    0.00000 |****                                                          0.005
   26.89379 |********                                                      0.010
   53.78758 |********                                                      0.010
   80.68137 |                                                              0.000
  107.57517 |****                                                          0.005
  134.46896 |************                                                  0.016
  161.36275 |************                                                  0.016
  188.25654 |****                                                          0.005
  215.15033 |************                                                  0.016
  242.04412 |********                                                      0.010
  268.93791 |************                                                  0.016
  295.83170 |********                                                      0.010
  322.72550 |************                                                  0.016
  349.61929 |************************                                      0.031
  376.51308 |**************************                                    0.034
  403.40687 |********                                                      0.010
  430.30066 |************                                                  0.016
  457.19445 |****                                                          0.005
  484.08824 |********************                                          0.026
  510.98203 |********                                                      0.010
  537.87583 |**************************                                    0.034
  564.76962 |********                                                      0.010
  591.66341 |****************                                              0.021
  618.55720 |******************                                            0.023
  645.45099 |********************                                          0.026
  672.34478 |****************                                              0.021
  699.23857 |********************************                              0.042
  726.13237 |****                                                          0.005
  753.02616 |********************************                              0.042
  779.91995 |****                                                          0.005
  806.81374 |********                                                      0.010
  833.70753 |****************                                              0.021
  860.60132 |************                                                  0.016
  887.49511 |********                                                      0.010
  914.38890 |****                                                          0.005
  941.28270 |**************                                                0.018
  968.17649 |                                                              0.000
  995.07028 |************                                                  0.016
 1021.96407 |************                                                  0.016
 1048.85786 |********                                                      0.010
 1075.75165 |                                                              0.000
 1102.64544 |********                                                      0.010
 1129.53924 |************                                                  0.016
 1156.43303 |**************                                                0.018
 1183.32682 |                                                              0.000
 1210.22061 |                                                              0.000
 1237.11440 |****                                                          0.005
 1264.00819 |****                                                          0.005
 1290.90198 |                                                              0.000
 1317.79577 |********                                                      0.010
 1344.68957 |****                                                          0.005
 1371.58336 |********************                                          0.026
 1398.47715 |******                                                        0.008
 1425.37094 |                                                              0.000
 1452.26473 |****************                                              0.021
 1479.15852 |****                                                          0.005
 1506.05231 |********************                                          0.026
 1532.94610 |                                                              0.000
 1559.83990 |********                                                      0.010
 1586.73369 |****************                                              0.021
 1613.62748 |********                                                      0.010
 1640.52127 |**************************************************            0.065
 1667.41506 |************************************************************  0.078
 1694.30885 |****************************                                  0.037
--------------------------------------------------------------------------------



  Time to end of optimisation =       0.3037 seconds


  Peak dynamic memory used =       5.30 MB 


  Timing analysis for GULP :

--------------------------------------------------------------------------------
  Task / Subroutine                                          Time (Seconds)
--------------------------------------------------------------------------------
  Calculation of real space energy and derivatives                0.0004
  Calculation of Brenner energy and derivatives                   0.1555
  Calculation of phonons                                          0.1616
  Calculation of matrix diagonalisation                           0.0085
--------------------------------------------------------------------------------
  Total CPU time                                                  0.3038
--------------------------------------------------------------------------------


  Job Finished at 21:40.31  7th May        2024                               

