
                                 *****************
                                 * O   R   C   A *
                                 *****************

                                            #,                                       
                                            ###                                      
                                            ####                                     
                                            #####                                    
                                            ######                                   
                                           ########,                                 
                                     ,,################,,,,,                         
                               ,,#################################,,                 
                          ,,##########################################,,             
                       ,#########################################, ''#####,          
                    ,#############################################,,   '####,        
                  ,##################################################,,,,####,       
                ,###########''''           ''''###############################       
              ,#####''   ,,,,##########,,,,          '''####'''          '####       
            ,##' ,,,,###########################,,,                        '##       
           ' ,,###''''                  '''############,,,                           
         ,,##''                                '''############,,,,        ,,,,,,###''
      ,#''                                            '''#######################'''  
     '                                                          ''''####''''         
             ,#######,   #######,   ,#######,      ##                                
            ,#'     '#,  ##    ##  ,#'     '#,    #''#        ######   ,####,        
            ##       ##  ##   ,#'  ##            #'  '#       #        #'  '#        
            ##       ##  #######   ##           ,######,      #####,   #    #        
            '#,     ,#'  ##    ##  '#,     ,#' ,#      #,         ##   #,  ,#        
             '#######'   ##     ##  '#######'  #'      '#     #####' # '####'        



                  #######################################################
                  #                        -***-                        #
                  #          Department of theory and spectroscopy      #
                  #    Directorship and core code : Frank Neese         #
                  #        Max Planck Institute fuer Kohlenforschung    #
                  #                Kaiser Wilhelm Platz 1               #
                  #                 D-45470 Muelheim/Ruhr               #
                  #                      Germany                        #
                  #                                                     #
                  #                  All rights reserved                #
                  #                        -***-                        #
                  #######################################################


                         Program Version 5.0.2 -  RELEASE  -


 With contributions from (in alphabetic order):
   Daniel Aravena         : Magnetic Suceptibility
   Michael Atanasov       : Ab Initio Ligand Field Theory (pilot matlab implementation)
   Alexander A. Auer      : GIAO ZORA, VPT2 properties, NMR spectrum
   Ute Becker             : Parallelization
   Giovanni Bistoni       : ED, misc. LED, open-shell LED, HFLD
   Martin Brehm           : Molecular dynamics
   Dmytro Bykov           : SCF Hessian
   Vijay G. Chilkuri      : MRCI spin determinant printing, contributions to CSF-ICE
   Dipayan Datta          : RHF DLPNO-CCSD density
   Achintya Kumar Dutta   : EOM-CC, STEOM-CC
   Dmitry Ganyushin       : Spin-Orbit,Spin-Spin,Magnetic field MRCI
   Miquel Garcia          : C-PCM and meta-GGA Hessian, CC/C-PCM, Gaussian charge scheme
   Yang Guo               : DLPNO-NEVPT2, F12-NEVPT2, CIM, IAO-localization
   Andreas Hansen         : Spin unrestricted coupled pair/coupled cluster methods
   Benjamin Helmich-Paris : MC-RPA, TRAH-SCF, COSX integrals
   Lee Huntington         : MR-EOM, pCC
   Robert Izsak           : Overlap fitted RIJCOSX, COSX-SCS-MP3, EOM
   Marcus Kettner         : VPT2
   Christian Kollmar      : KDIIS, OOCD, Brueckner-CCSD(T), CCSD density, CASPT2, CASPT2-K
   Simone Kossmann        : Meta GGA functionals, TD-DFT gradient, OOMP2, MP2 Hessian
   Martin Krupicka        : Initial AUTO-CI
   Lucas Lang             : DCDCAS
   Marvin Lechner         : AUTO-CI (C++ implementation), FIC-MRCC
   Dagmar Lenk            : GEPOL surface, SMD
   Dimitrios Liakos       : Extrapolation schemes; Compound Job, initial MDCI parallelization
   Dimitrios Manganas     : Further ROCIS development; embedding schemes
   Dimitrios Pantazis     : SARC Basis sets
   Anastasios Papadopoulos: AUTO-CI, single reference methods and gradients
   Taras Petrenko         : DFT Hessian,TD-DFT gradient, ASA, ECA, R-Raman, ABS, FL, XAS/XES, NRVS
   Peter Pinski           : DLPNO-MP2, DLPNO-MP2 Gradient
   Christoph Reimann      : Effective Core Potentials
   Marius Retegan         : Local ZFS, SOC
   Christoph Riplinger    : Optimizer, TS searches, QM/MM, DLPNO-CCSD(T), (RO)-DLPNO pert. Triples
   Tobias Risthaus        : Range-separated hybrids, TD-DFT gradient, RPA, STAB
   Michael Roemelt        : Original ROCIS implementation
   Masaaki Saitow         : Open-shell DLPNO-CCSD energy and density
   Barbara Sandhoefer     : DKH picture change effects
   Avijit Sen             : IP-ROCIS
   Kantharuban Sivalingam : CASSCF convergence, NEVPT2, FIC-MRCI
   Bernardo de Souza      : ESD, SOC TD-DFT
   Georgi Stoychev        : AutoAux, RI-MP2 NMR, DLPNO-MP2 response
   Willem Van den Heuvel  : Paramagnetic NMR
   Boris Wezisla          : Elementary symmetry handling
   Frank Wennmohs         : Technical directorship


 We gratefully acknowledge several colleagues who have allowed us to
 interface, adapt or use parts of their codes:
   Stefan Grimme, W. Hujo, H. Kruse, P. Pracht,  : VdW corrections, initial TS optimization,
                  C. Bannwarth, S. Ehlert          DFT functionals, gCP, sTDA/sTD-DF
   Ed Valeev, F. Pavosevic, A. Kumar             : LibInt (2-el integral package), F12 methods
   Garnet Chan, S. Sharma, J. Yang, R. Olivares  : DMRG
   Ulf Ekstrom                                   : XCFun DFT Library
   Mihaly Kallay                                 : mrcc  (arbitrary order and MRCC methods)
   Jiri Pittner, Ondrej Demel                    : Mk-CCSD
   Frank Weinhold                                : gennbo (NPA and NBO analysis)
   Christopher J. Cramer and Donald G. Truhlar   : smd solvation model
   Lars Goerigk                                  : TD-DFT with DH, B97 family of functionals
   V. Asgeirsson, H. Jonsson                     : NEB implementation
   FAccTs GmbH                                   : IRC, NEB, NEB-TS, DLPNO-Multilevel, CI-OPT
                                                   MM, QMMM, 2- and 3-layer-ONIOM, Crystal-QMMM,
                                                   LR-CPCM, SF, NACMEs, symmetry and pop. for TD-DFT,
                                                   nearIR, NL-DFT gradient (VV10), updates on ESD,
                                                   ML-optimized integration grids
   S Lehtola, MJT Oliveira, MAL Marques          : LibXC Library
   Liviu Ungur et al                             : ANISO software


 Your calculation uses the libint2 library for the computation of 2-el integrals
 For citations please refer to: http://libint.valeyev.net

 Your ORCA version has been built with support for libXC version: 5.1.0
 For citations please refer to: https://tddft.org/programs/libxc/

 This ORCA versions uses:
   CBLAS   interface :  Fast vector & matrix operations
   LAPACKE interface :  Fast linear algebra routines
   SCALAPACK package :  Parallel linear algebra routines
   Shared memory     :  Shared parallel matrices
   BLAS/LAPACK       :  OpenBLAS 0.3.15  USE64BITINT DYNAMIC_ARCH NO_AFFINITY SkylakeX SINGLE_THREADED
        Core in use  :  SkylakeX
   Copyright (c) 2011-2014, The OpenBLAS Project




***************************************
The coordinates will be read from file: molecule.xyz
***************************************


================================================================================

----- Orbital basis set information -----
Your calculation utilizes the basis: def2-TZVP
   F. Weigend and R. Ahlrichs, Phys. Chem. Chem. Phys. 7, 3297 (2005).

----- AuxJ basis set information -----
Your calculation utilizes the auxiliary basis: def2/J
   F. Weigend, Phys. Chem. Chem. Phys. 8, 1057 (2006).

================================================================================
                                        WARNINGS
                       Please study these warnings very carefully!
================================================================================

WARNING: Old DensityContainer found on disk!
         Will remove this file - 
         If you want to keep old densities, please start your calculation with a different basename. 


WARNING: your system is open-shell and RHF/RKS was chosen
  ===> : WILL SWITCH to UHF/UKS


WARNING: Geometry Optimization
  ===> : Switching off AutoStart
         For restart on a previous wavefunction, please use MOREAD

INFO   : the flag for use of the SHARK integral package has been found!

================================================================================
                                       INPUT FILE
================================================================================
NAME = molecule.inp
|  1> !PBE DEF2-TZVP OPT
|  2> 
|  3> %pal
|  4>    nprocs 2
|  5> end
|  6> 
|  7> %output
|  8> printlevel huge
|  9> end
| 10> 
| 11> * XYZFile 0 2 molecule.xyz
| 12> 
| 13>                          ****END OF INPUT****
================================================================================

                       *****************************
                       * Geometry Optimization Run *
                       *****************************

Geometry optimization settings:
Update method            Update   .... BFGS
Choice of coordinates    CoordSys .... Z-matrix Internals
Initial Hessian          InHess   .... Almoef's Model

Convergence Tolerances:
Energy Change            TolE     ....  5.0000e-06 Eh
Max. Gradient            TolMAXG  ....  3.0000e-04 Eh/bohr
RMS Gradient             TolRMSG  ....  1.0000e-04 Eh/bohr
Max. Displacement        TolMAXD  ....  4.0000e-03 bohr
RMS Displacement         TolRMSD  ....  2.0000e-03 bohr
Strict Convergence                ....  False
------------------------------------------------------------------------------
                        ORCA OPTIMIZATION COORDINATE SETUP
------------------------------------------------------------------------------

The optimization will be done in new redundant internal coordinates
Making redundant internal coordinates   ...  (new redundants) done
Evaluating the initial hessian          ...  (Almloef) done
Evaluating the coordinates              ...  done
Calculating the B-matrix                .... done
Calculating the G-matrix                .... done
Diagonalizing the G-matrix              .... done
The first mode is                       ....    0
The number of degrees of freedom        ....    1

    -----------------------------------------------------------------
                    Redundant Internal Coordinates


    -----------------------------------------------------------------
         Definition                    Initial Value    Approx d2E/dq
    -----------------------------------------------------------------
      1. B(O   1,N   0)                  1.1576         1.177197   
    -----------------------------------------------------------------

Number of atoms                         .... 2
Number of degrees of freedom            .... 1

         *************************************************************
         *                GEOMETRY OPTIMIZATION CYCLE   1            *
         *************************************************************
---------------------------------
CARTESIAN COORDINATES (ANGSTROEM)
---------------------------------
  N      0.421218    0.000000    0.000000
  O      1.578782    0.000000    0.000000

----------------------------
CARTESIAN COORDINATES (A.U.)
----------------------------
  NO LB      ZA    FRAG     MASS         X           Y           Z
   0 N     7.0000    0    14.007    0.795987    0.000000    0.000000
   1 O     8.0000    0    15.999    2.983466    0.000000    0.000000

--------------------------------
INTERNAL COORDINATES (ANGSTROEM)
--------------------------------
 N      0   0   0     0.000000000000     0.00000000     0.00000000
 O      1   0   0     1.157563960324     0.00000000     0.00000000

---------------------------
INTERNAL COORDINATES (A.U.)
---------------------------
 N      0   0   0     0.000000000000     0.00000000     0.00000000
 O      1   0   0     2.187478867509     0.00000000     0.00000000

---------------------
BASIS SET INFORMATION
---------------------
There are 2 groups of distinct atoms

 Group   1 Type N   : 11s6p2d1f contracted to 5s3p2d1f pattern {62111/411/11/1}
 Group   2 Type O   : 11s6p2d1f contracted to 5s3p2d1f pattern {62111/411/11/1}

Atom   0N    basis set group =>   1
Atom   1O    basis set group =>   2

-------------------------
BASIS SET IN INPUT FORMAT
-------------------------

 # Basis set for element : N 
 NewGTO N 
 S 6 
   1   19730.8006470000      0.0005862639
   2    2957.8958745000      0.0045428821
   3     673.2213359500      0.0235584136
   4     190.6824949400      0.0947091933
   5      62.2954418980      0.2971978492
   6      22.6541611820      0.6691624689
 S 2 
   1       8.9791477428      0.6459668363
   2       3.6863002370      0.3870057440
 S 1 
   1       0.8466007680      1.0000000000
 S 1 
   1       0.3364713377      1.0000000000
 S 1 
   1       0.1364765367      1.0000000000
 P 4 
   1      49.2003805100      0.0114488252
   2      11.3467905370      0.0784223379
   3       3.4273972411      0.3081809474
   4       1.1785525134      0.7202719637
 P 1 
   1       0.4164220497      1.0000000000
 P 1 
   1       0.1426082601      1.0000000000
 D 1 
   1       1.6540000000      1.0000000000
 D 1 
   1       0.4690000000      1.0000000000
 F 1 
   1       1.0930000000      1.0000000000
  end;

 # Basis set for element : O 
 NewGTO O 
 S 6 
   1   27032.3826310000      0.0005722733
   2    4052.3871392000      0.0044353233
   3     922.3272271000      0.0230201076
   4     261.2407098900      0.0928224906
   5      85.3546413510      0.2937850002
   6      31.0350352450      0.6740160450
 S 2 
   1      12.2608607280      0.6383993702
   2       4.9987076005      0.3953458713
 S 1 
   1       1.1703108158      1.0000000000
 S 1 
   1       0.4647474099      1.0000000000
 S 1 
   1       0.1850453636      1.0000000000
 P 4 
   1      63.2749548010      0.0120183321
   2      14.6270493790      0.0830054217
   3       4.4501223456      0.3199174393
   4       1.5275799647      0.7071554292
 P 1 
   1       0.5293511794      1.0000000000
 P 1 
   1       0.1747842127      1.0000000000
 D 1 
   1       2.3140000000      1.0000000000
 D 1 
   1       0.6450000000      1.0000000000
 F 1 
   1       1.4280000000      1.0000000000
  end;

---------------------------------
AUXILIARY/J BASIS SET INFORMATION
---------------------------------
There are 2 groups of distinct atoms

 Group   1 Type N   : 12s5p4d2f1g contracted to 6s4p3d1f1g pattern {711111/2111/211/2/1}
 Group   2 Type O   : 12s5p4d2f1g contracted to 6s4p3d1f1g pattern {711111/2111/211/2/1}

Atom   0N    basis set group =>   1
Atom   1O    basis set group =>   2

-------------------------------------
AUXILIARY/J BASIS SET IN INPUT FORMAT
-------------------------------------

 # Auxiliary/J basis set for element : N 
 NewAuxJGTO N 
 S 7 
   1    2542.9401785000      0.0128431329
   2    1029.5472946000      0.0206655120
   3     424.9053546000      0.0652200677
   4     178.4573708000      0.1617388940
   5      76.1362742000      0.3094256941
   6      32.9338653000      0.3918849307
   7      14.4155436000      0.1822470660
 S 1 
   1       6.3718891000     -1.0000000000
 S 1 
   1       2.8381742000      1.0000000000
 S 1 
   1       1.2711793000      1.0000000000
 S 1 
   1       0.5712407000      1.0000000000
 S 1 
   1       0.2569887000      1.0000000000
 P 2 
   1      17.8975990000     -1.0974070137
   2       6.5346319000      0.1380055963
 P 1 
   1       2.3523645000      1.0000000000
 P 1 
   1       0.8397377000      1.0000000000
 P 1 
   1       0.2989335000      1.0000000000
 D 2 
   1       7.6909870000      0.1770780943
   2       2.3044972000      0.8918319220
 D 1 
   1       0.8403987000      1.0000000000
 D 1 
   1       0.3303797000      1.0000000000
 F 2 
   1       2.3331076000      0.6223178877
   2       0.8446137000      0.5036714203
 G 1 
   1       1.4037700000     -1.0000000000
  end;

 # Auxiliary/J basis set for element : O 
 NewAuxJGTO O 
 S 7 
   1    2876.8216605000      0.0168151159
   2    1004.7443032000      0.0340137548
   3     369.7579954000      0.1194951309
   4     142.9442404000      0.2664627624
   5      57.8366425000      0.4202764046
   6      24.3864983000      0.2765077335
   7      10.6622662000      0.0057008815
 S 1 
   1       4.8070437000     -1.0000000000
 S 1 
   1       2.2210770000      1.0000000000
 S 1 
   1       1.0447795000      1.0000000000
 S 1 
   1       0.4968425000      1.0000000000
 S 1 
   1       0.2371384000      1.0000000000
 P 2 
   1      64.2613382000     -0.2731534179
   2      16.3006076000     -0.8168011598
 P 1 
   1       4.3550542000      1.0000000000
 P 1 
   1       1.2019554000      1.0000000000
 P 1 
   1       0.3354196000      1.0000000000
 D 2 
   1       9.2146611000     -0.4661230638
   2       2.8435251000     -0.6600908911
 D 1 
   1       0.9955759000     -1.0000000000
 D 1 
   1       0.3649441000     -1.0000000000
 F 2 
   1       2.6420115000      0.5931563945
   2       0.7345613000      0.5931563945
 G 1 
   1       1.3931000000     -1.0000000000
  end;



           ************************************************************
           *        Program running with 2 parallel MPI-processes     *
           *              working on a common directory               *
           ************************************************************
------------------------------------------------------------------------------
                           ORCA GTO INTEGRAL CALCULATION
                           -- RI-GTO INTEGRALS CHOSEN --
------------------------------------------------------------------------------
------------------------------------------------------------------------------
                   ___                                                        
                  /   \      - P O W E R E D   B Y -                         
                 /     \                                                     
                 |  |  |   _    _      __       _____    __    __             
                 |  |  |  | |  | |    /  \     |  _  \  |  |  /  |          
                  \  \/   | |  | |   /    \    | | | |  |  | /  /          
                 / \  \   | |__| |  /  /\  \   | |_| |  |  |/  /          
                |  |  |   |  __  | /  /__\  \  |    /   |      \           
                |  |  |   | |  | | |   __   |  |    \   |  |\   \          
                \     /   | |  | | |  |  |  |  | |\  \  |  | \   \       
                 \___/    |_|  |_| |__|  |__|  |_| \__\ |__|  \__/        
                                                                              
                      - O R C A' S   B I G   F R I E N D -                    
                                      &                                       
                       - I N T E G R A L  F E E D E R -                       
                                                                              
 v1 FN, 2020, v2 2021                                                         
------------------------------------------------------------------------------


Reading SHARK input file molecule.SHARKINP.tmp ... SHARK General Contraction Test:  Segmented basis detected
   -> Pre-screening matrix *NOT* found on disk - recalculating with NShells=22
   -> Leaving CheckPreScreeningMatrix
ok
----------------------
SHARK INTEGRAL PACKAGE
----------------------

Number of atoms                             ...      2
Number of basis functions                   ...     62
Number of shells                            ...     22
Maximum angular momentum                    ...      3
Integral batch strategy                     ... SHARK/LIBINT Hybrid
RI-J (if used) integral strategy            ... SPLIT-RIJ (Revised 2003 algorithm where possible)
Printlevel                                  ...      2
Contraction scheme used                     ... SEGMENTED contraction
Coulomb Range Separation                    ... NOT USED
Exchange Range Separation                   ... NOT USED
Finite Nucleus Model                        ... NOT USED
Auxiliary Coulomb fitting basis             ... AVAILABLE
   # of basis functions in Aux-J            ...     98
   # of shells in Aux-J                     ...     30
   Maximum angular momentum in Aux-J        ...      4
Auxiliary J/K fitting basis                 ... NOT available
Auxiliary Correlation fitting basis         ... NOT available
Auxiliary 'external' fitting basis          ... NOT available
Integral threshold                          ...     2.500000e-11
Primitive cut-off                           ...     2.500000e-12
Primitive pair pre-selection threshold      ...     2.500000e-12

Calculating pre-screening integrals         ... done (  0.0 sec) Dimension = 22
Organizing shell pair data                  ... done (  0.0 sec)
Shell pair information
Total number of shell pairs                 ...       253
Shell pairs after pre-screening             ...       252
Total number of primitive shell pairs       ...       864
Primitive shell pairs kept                  ...       787
          la=0 lb=0:     54 shell pairs
          la=1 lb=0:     60 shell pairs
          la=1 lb=1:     21 shell pairs
          la=2 lb=0:     40 shell pairs
          la=2 lb=1:     24 shell pairs
          la=2 lb=2:     10 shell pairs
          la=3 lb=0:     20 shell pairs
          la=3 lb=1:     12 shell pairs
          la=3 lb=2:      8 shell pairs
          la=3 lb=3:      3 shell pairs

Calculating one electron integrals          ... done (  0.0 sec)
Calculating RI/J V-Matrix + Cholesky decomp.... done (  0.0 sec)
Calculating Nuclear repulsion               ... done (  0.0 sec) ENN=     25.600247312913 Eh

SHARK setup successfully completed in   0.1 seconds

Maximum memory used throughout the entire GTOINT-calculation: 13.9 MB


           ************************************************************
           *        Program running with 2 parallel MPI-processes     *
           *              working on a common directory               *
           ************************************************************
-------------------------------------------------------------------------------
                                 ORCA SCF
-------------------------------------------------------------------------------

------------
SCF SETTINGS
------------
Hamiltonian:
 Density Functional     Method          .... DFT(GTOs)
 Exchange Functional    Exchange        .... PBE
   PBE kappa parameter   XKappa         ....  0.804000
   PBE mue parameter    XMuePBE         ....  0.219520
 Correlation Functional Correlation     .... PBE
   PBE beta parameter  CBetaPBE         ....  0.066725
 LDA part of GGA corr.  LDAOpt          .... PW91-LDA
 Gradients option       PostSCFGGA      .... off
   Density functional embedding theory  .... OFF
   NL short-range parameter             ....  6.400000
 RI-approximation to the Coulomb term is turned on
   Number of AuxJ basis functions       .... 98


General Settings:
 Integral files         IntName         .... molecule
 Hartree-Fock type      HFTyp           .... UHF
 Total Charge           Charge          ....    0
 Multiplicity           Mult            ....    2
 Number of Electrons    NEL             ....   15
 Basis Dimension        Dim             ....   62
 Nuclear Repulsion      ENuc            ....     25.6002473129 Eh

Convergence Acceleration:
 DIIS                   CNVDIIS         .... on
   Start iteration      DIISMaxIt       ....    12
   Startup error        DIISStart       ....  0.200000
   # of expansion vecs  DIISMaxEq       ....     5
   Bias factor          DIISBfac        ....   1.050
   Max. coefficient     DIISMaxC        ....  10.000
 Trust-Rad. Augm. Hess. CNVTRAH         .... auto
   Auto Start mean grad. ratio tolernc. ....  1.125000
   Auto Start start iteration           ....    20
   Auto Start num. interpolation iter.  ....    10
   Max. Number of Micro iterations      ....    16
   Max. Number of Macro iterations      .... Maxiter - #DIIS iter
   Number of Davidson start vectors     ....     2
   Converg. threshold I  (grad. norm)   ....   1.000e-05
   Converg. threshold II (energy diff.) ....   1.000e-08
   Grad. Scal. Fac. for Micro threshold ....   0.100
   Minimum threshold for Micro iter.    ....   0.010
   NR start threshold (gradient norm)   ....   0.001
   Initial trust radius                 ....   0.400
   Minimum AH scaling param. (alpha)    ....   1.000
   Maximum AH scaling param. (alpha)    .... 1000.000
   Orbital update algorithm             .... Taylor
   White noise on init. David. guess    .... on
   Maximum white noise                  ....   0.010
   Quad. conv. algorithm                .... NR
 SOSCF                  CNVSOSCF        .... off
 Level Shifting         CNVShift        .... on
   Level shift para.    LevelShift      ....    0.2500
   Turn off err/grad.   ShiftErr        ....    0.0010
 Zerner damping         CNVZerner       .... off
 Static damping         CNVDamp         .... on
   Fraction old density DampFac         ....    0.7000
   Max. Damping (<1)    DampMax         ....    0.9800
   Min. Damping (>=0)   DampMin         ....    0.0000
   Turn off err/grad.   DampErr         ....    0.1000
 Fernandez-Rico         CNVRico         .... off

SCF Procedure:
 Maximum # iterations   MaxIter         ....   125
 SCF integral mode      SCFMode         .... Direct
   Integral package                     .... SHARK and LIBINT hybrid scheme
 Reset frequency        DirectResetFreq ....    20
 Integral Threshold     Thresh          ....  2.500e-11 Eh
 Primitive CutOff       TCut            ....  2.500e-12 Eh

Convergence Tolerance:
 Convergence Check Mode ConvCheckMode   .... Total+1el-Energy
 Convergence forced     ConvForced      .... 0
 Energy Change          TolE            ....  1.000e-08 Eh
 1-El. energy change                    ....  1.000e-05 Eh
 DIIS Error             TolErr          ....  5.000e-07


Diagonalization of the overlap matrix:
Smallest eigenvalue                        ... 1.109e-03
Time for diagonalization                   ...    0.001 sec
Threshold for overlap eigenvalues          ... 1.000e-08
Number of eigenvalues below threshold      ... 0
Time for construction of square roots      ...    0.003 sec
Total time needed                          ...    0.003 sec

SHARK General Contraction Test:  Segmented basis detected
   -> Pre-screening matrix found on disk - Trying to read with NShells=22
   -> Passing Pre-screening matrix on to SHARK ...ok
   -> Leaving CheckPreScreeningMatrix
----------------------
SHARK INTEGRAL PACKAGE
----------------------

Number of atoms                             ...      2
Number of basis functions                   ...     62
Number of shells                            ...     22
Maximum angular momentum                    ...      3
Integral batch strategy                     ... SHARK/LIBINT Hybrid
RI-J (if used) integral strategy            ... SPLIT-RIJ (Revised 2003 algorithm where possible)
Printlevel                                  ...      2
Contraction scheme used                     ... SEGMENTED contraction
Coulomb Range Separation                    ... NOT USED
Exchange Range Separation                   ... NOT USED
Finite Nucleus Model                        ... NOT USED
Auxiliary Coulomb fitting basis             ... AVAILABLE
   # of basis functions in Aux-J            ...     98
   # of shells in Aux-J                     ...     30
   Maximum angular momentum in Aux-J        ...      4
Auxiliary J/K fitting basis                 ... NOT available
Auxiliary Correlation fitting basis         ... NOT available
Auxiliary 'external' fitting basis          ... NOT available
Integral threshold                          ...     2.500000e-11
Primitive cut-off                           ...     2.500000e-12
Primitive pair pre-selection threshold      ...     2.500000e-12

------------------------
ONE ELECTRON MATRIX (AU)
------------------------
                  0          1          2          3          4          5    
      0     -20.925060 -25.226747  -8.719921  -4.585279  -2.376811   0.000000
      1     -25.226747 -23.164096 -11.989383  -6.907031  -3.731972   0.000000
      2      -8.719921 -11.989383 -12.665041  -9.875900  -6.399438   0.000000
      3      -4.585279  -6.907031  -9.875900  -9.591178  -7.484108   0.000000
      4      -2.376811  -3.731972  -6.399438  -7.484108  -7.191283   0.000000
      5       0.000000   0.000000   0.000000   0.000000   0.000000  -9.519512
      6      -0.036952  -0.243193  -0.804642  -0.769252  -0.538522   0.000000
      7       0.000000   0.000000   0.000000   0.000000   0.000000   0.000000
      8       0.000000   0.000000   0.000000   0.000000   0.000000  -5.706730
      9      -0.004650  -0.067357  -0.773224  -1.327573  -1.325594   0.000000
     10       0.000000   0.000000   0.000000   0.000000   0.000000   0.000000
     11       0.000000   0.000000   0.000000   0.000000   0.000000  -2.338331
     12      -0.001253  -0.020399  -0.366907  -0.916372  -1.254638   0.000000
     13       0.000000   0.000000   0.000000   0.000000   0.000000   0.000000
     14       0.000458   0.017072   0.161168   0.178986   0.131469   0.000000
     15       0.000000   0.000000   0.000000   0.000000   0.000000  -0.577827
     16       0.000000   0.000000   0.000000   0.000000   0.000000   0.000000
     17      -0.000793  -0.029569  -0.279150  -0.310012  -0.227712   0.000000
     18       0.000000   0.000000   0.000000   0.000000   0.000000   0.000000
     19       0.000060   0.004146   0.163525   0.387615   0.435539   0.000000
     20       0.000000   0.000000   0.000000   0.000000   0.000000  -0.342855
     21       0.000000   0.000000   0.000000   0.000000   0.000000   0.000000
     22      -0.000104  -0.007181  -0.283234  -0.671369  -0.754376   0.000000
     23       0.000000   0.000000   0.000000   0.000000   0.000000   0.000000
     24       0.000000   0.000000   0.000000   0.000000   0.000000   0.113047
     25       0.000013   0.002878   0.126954   0.238875   0.226195   0.000000
     26       0.000000   0.000000   0.000000   0.000000   0.000000   0.000000
     27       0.000000   0.000000   0.000000   0.000000   0.000000  -0.145944
     28       0.000000   0.000000   0.000000   0.000000   0.000000   0.000000
     29       0.000017   0.003715   0.163897   0.308387   0.292017   0.000000
     30       0.000000   0.000000   0.000000   0.000000   0.000000   0.000000
     31       0.000000  -0.000003  -0.188127  -0.977250  -1.283394   0.000000
     32      -0.000000  -0.000325  -0.365709  -1.551093  -2.001162   0.000000
     33      -0.059883  -0.168792  -1.349248  -3.017286  -3.580518   0.000000
     34      -0.668251  -1.137687  -2.814289  -4.345722  -4.783532   0.000000
     35      -1.240067  -1.982846  -3.833435  -5.159307  -5.620300   0.000000
     36       0.000000   0.000000   0.000000   0.000000   0.000000  -0.317035
     37       0.058163   0.196922   1.442003   1.869523   1.136216   0.000000
     38       0.000000   0.000000   0.000000   0.000000   0.000000   0.000000
     39       0.000000   0.000000   0.000000   0.000000   0.000000  -1.231501
     40       1.685058   2.721947   4.854128   4.822873   3.118127   0.000000
     41       0.000000   0.000000   0.000000   0.000000   0.000000   0.000000
     42       0.000000   0.000000   0.000000   0.000000   0.000000  -1.424688
     43       2.255173   3.501148   5.631477   5.833154   4.441584   0.000000
     44       0.000000   0.000000   0.000000   0.000000   0.000000   0.000000
     45       0.010479   0.071681   0.511619   0.385611   0.148373   0.000000
     46       0.000000   0.000000   0.000000   0.000000   0.000000   0.455185
     47       0.000000   0.000000   0.000000   0.000000   0.000000   0.000000
     48      -0.018150  -0.124156  -0.886150  -0.667897  -0.256989   0.000000
     49       0.000000   0.000000   0.000000   0.000000   0.000000   0.000000
     50       1.233669   1.894332   2.484602   1.737928   0.808513   0.000000
     51       0.000000   0.000000   0.000000   0.000000   0.000000   2.342354
     52       0.000000   0.000000   0.000000   0.000000   0.000000   0.000000
     53      -2.136778  -3.281079  -4.303458  -3.010179  -1.400385   0.000000
     54       0.000000   0.000000   0.000000   0.000000   0.000000   0.000000
     55       0.000000   0.000000   0.000000   0.000000   0.000000   0.855501
     56      -0.412075  -0.823232  -1.151130  -0.589477  -0.232492   0.000000
     57       0.000000   0.000000   0.000000   0.000000   0.000000   0.000000
     58       0.000000   0.000000   0.000000   0.000000   0.000000  -1.104447
     59       0.000000   0.000000   0.000000   0.000000   0.000000   0.000000
     60      -0.531987  -1.062788  -1.486102  -0.761012  -0.300146   0.000000
     61       0.000000   0.000000   0.000000   0.000000   0.000000   0.000000
                  6          7          8          9         10         11    
      0      -0.036952   0.000000   0.000000  -0.004650   0.000000   0.000000
      1      -0.243193   0.000000   0.000000  -0.067357   0.000000   0.000000
      2      -0.804642   0.000000   0.000000  -0.773224   0.000000   0.000000
      3      -0.769252   0.000000   0.000000  -1.327573   0.000000   0.000000
      4      -0.538522   0.000000   0.000000  -1.325594   0.000000   0.000000
      5       0.000000   0.000000  -5.706730   0.000000   0.000000  -2.338331
      6      -9.871766   0.000000   0.000000  -6.106334   0.000000   0.000000
      7       0.000000  -9.519512   0.000000   0.000000  -5.706730   0.000000
      8       0.000000   0.000000  -6.966841   0.000000   0.000000  -4.545650
      9      -6.106334   0.000000   0.000000  -8.126055   0.000000   0.000000
     10       0.000000  -5.706730   0.000000   0.000000  -6.966841   0.000000
     11       0.000000   0.000000  -4.545650   0.000000   0.000000  -4.995915
     12      -2.532547   0.000000   0.000000  -5.455782   0.000000   0.000000
     13       0.000000  -2.338331   0.000000   0.000000  -4.545650   0.000000
     14       0.427888   0.000000   0.000000   0.422622   0.000000   0.000000
     15       0.000000   0.000000  -0.507148   0.000000   0.000000  -0.212362
     16       0.000000   0.000000   0.000000   0.000000   0.000000   0.000000
     17      -0.741124   0.000000   0.000000  -0.732004   0.000000   0.000000
     18       0.000000  -0.577827   0.000000   0.000000  -0.507148   0.000000
     19       0.305031   0.000000   0.000000   0.952575   0.000000   0.000000
     20       0.000000   0.000000  -0.843926   0.000000   0.000000  -0.656131
     21       0.000000   0.000000   0.000000   0.000000   0.000000   0.000000
     22      -0.528329   0.000000   0.000000  -1.649908   0.000000   0.000000
     23       0.000000  -0.342855   0.000000   0.000000  -0.843926   0.000000
     24       0.000000   0.000000   0.211144   0.000000   0.000000   0.121396
     25       0.229778   0.000000   0.000000   0.542791   0.000000   0.000000
     26       0.000000   0.046151   0.000000   0.000000   0.086199   0.000000
     27       0.000000   0.000000  -0.272586   0.000000   0.000000  -0.156722
     28       0.000000   0.000000   0.000000   0.000000   0.000000   0.000000
     29       0.296643   0.000000   0.000000   0.700740   0.000000   0.000000
     30       0.000000   0.178744   0.000000   0.000000   0.333848   0.000000
     31      -0.180449   0.000000   0.000000  -2.180735   0.000000   0.000000
     32      -0.391258   0.000000   0.000000  -3.359583   0.000000   0.000000
     33      -1.578680   0.000000   0.000000  -5.472664   0.000000   0.000000
     34      -2.366388   0.000000   0.000000  -5.865344   0.000000   0.000000
     35      -1.789451   0.000000   0.000000  -4.429716   0.000000   0.000000
     36       0.000000   0.000000  -1.187445   0.000000   0.000000  -1.124672
     37       1.830650   0.000000   0.000000   2.854952   0.000000   0.000000
     38       0.000000  -0.317035   0.000000   0.000000  -1.187445   0.000000
     39       0.000000   0.000000  -2.692468   0.000000   0.000000  -2.642240
     40       3.511133   0.000000   0.000000   3.978891   0.000000   0.000000
     41       0.000000  -1.231501   0.000000   0.000000  -2.692468   0.000000
     42       0.000000   0.000000  -3.101397   0.000000   0.000000  -3.782874
     43       1.091688   0.000000   0.000000   1.245828   0.000000   0.000000
     44       0.000000  -1.424688   0.000000   0.000000  -3.101397   0.000000
     45       0.729707   0.000000   0.000000   0.447052   0.000000   0.000000
     46       0.000000   0.000000   0.893006   0.000000   0.000000   0.371713
     47       0.000000   0.000000   0.000000   0.000000   0.000000   0.000000
     48      -1.263889   0.000000   0.000000  -0.774317   0.000000   0.000000
     49       0.000000   0.455185   0.000000   0.000000   0.893006   0.000000
     50       1.597545   0.000000   0.000000   0.680903   0.000000   0.000000
     51       0.000000   0.000000   3.145526   0.000000   0.000000   1.583880
     52       0.000000   0.000000   0.000000   0.000000   0.000000   0.000000
     53      -2.767029   0.000000   0.000000  -1.179359   0.000000   0.000000
     54       0.000000   2.342354   0.000000   0.000000   3.145526   0.000000
     55       0.000000   0.000000   0.723576   0.000000   0.000000   0.185760
     56      -1.320854   0.000000   0.000000  -0.275975   0.000000   0.000000
     57       0.000000   0.349257   0.000000   0.000000   0.295399   0.000000
     58       0.000000   0.000000  -0.934133   0.000000   0.000000  -0.239815
     59       0.000000   0.000000   0.000000   0.000000   0.000000   0.000000
     60      -1.705215   0.000000   0.000000  -0.356282   0.000000   0.000000
     61       0.000000   1.352666   0.000000   0.000000   1.144075   0.000000
                 12         13         14         15         16         17    
      0      -0.001253   0.000000   0.000458   0.000000   0.000000  -0.000793
      1      -0.020399   0.000000   0.017072   0.000000   0.000000  -0.029569
      2      -0.366907   0.000000   0.161168   0.000000   0.000000  -0.279150
      3      -0.916372   0.000000   0.178986   0.000000   0.000000  -0.310012
      4      -1.254638   0.000000   0.131469   0.000000   0.000000  -0.227712
      5       0.000000   0.000000   0.000000  -0.577827   0.000000   0.000000
      6      -2.532547   0.000000   0.427888   0.000000   0.000000  -0.741124
      7       0.000000  -2.338331   0.000000   0.000000   0.000000   0.000000
      8       0.000000   0.000000   0.000000  -0.507148   0.000000   0.000000
      9      -5.455782   0.000000   0.422622   0.000000   0.000000  -0.732004
     10       0.000000  -4.545650   0.000000   0.000000   0.000000   0.000000
     11       0.000000   0.000000   0.000000  -0.212362   0.000000   0.000000
     12      -6.034585   0.000000   0.186338   0.000000   0.000000  -0.322747
     13       0.000000  -4.995915   0.000000   0.000000   0.000000   0.000000
     14       0.186338   0.000000  -5.439147   0.000000   0.000000   0.223778
     15       0.000000   0.000000   0.000000  -5.601778   0.000000   0.000000
     16       0.000000   0.000000   0.000000   0.000000  -5.309949   0.000000
     17      -0.322747   0.000000   0.223778   0.000000   0.000000  -5.697543
     18       0.000000  -0.212362   0.000000   0.000000   0.000000   0.000000
     19       0.782344   0.000000  -3.702597   0.000000   0.000000   0.191061
     20       0.000000   0.000000   0.000000  -3.804151   0.000000   0.000000
     21       0.000000   0.000000   0.000000   0.000000  -3.592287   0.000000
     22      -1.355059   0.000000   0.191061   0.000000   0.000000  -3.923215
     23       0.000000  -0.656131   0.000000   0.000000   0.000000   0.000000
     24       0.000000   0.000000   0.000000   0.458743   0.000000   0.000000
     25       0.343451   0.000000  -0.617688   0.000000   0.000000   0.328936
     26       0.000000   0.049560   0.000000   0.000000   0.000000   0.000000
     27       0.000000   0.000000   0.000000  -0.592235   0.000000   0.000000
     28       0.000000   0.000000   0.000000   0.000000  -0.468606   0.000000
     29       0.443394   0.000000  -0.134723   0.000000   0.000000   0.807270
     30       0.000000   0.191944   0.000000   0.000000   0.000000   0.000000
     31      -2.112548   0.000000   0.074582   0.000000   0.000000  -0.129180
     32      -3.236346   0.000000   0.202417   0.000000   0.000000  -0.350597
     33      -5.212482   0.000000   0.784164   0.000000   0.000000  -1.358212
     34      -5.848182   0.000000   0.755593   0.000000   0.000000  -1.308725
     35      -5.147277   0.000000   0.362981   0.000000   0.000000  -0.628702
     36       0.000000   0.000000   0.000000  -0.596536   0.000000   0.000000
     37       0.556739   0.000000  -0.984343   0.000000   0.000000   1.704931
     38       0.000000  -1.124672   0.000000   0.000000   0.000000   0.000000
     39       0.000000   0.000000   0.000000  -1.338942   0.000000   0.000000
     40       0.781888   0.000000  -0.854679   0.000000   0.000000   1.480347
     41       0.000000  -2.642240   0.000000   0.000000   0.000000   0.000000
     42       0.000000   0.000000   0.000000  -0.712017   0.000000   0.000000
     43      -0.466114   0.000000  -0.056003   0.000000   0.000000   0.097000
     44       0.000000  -3.782874   0.000000   0.000000   0.000000   0.000000
     45      -0.000559   0.000000  -0.531564   0.000000   0.000000   0.698832
     46       0.000000   0.000000   0.000000   0.953250   0.000000   0.000000
     47       0.000000   0.000000   0.000000   0.000000  -0.128094   0.000000
     48       0.000969   0.000000   0.698832   0.000000   0.000000  -1.338505
     49       0.000000   0.371713   0.000000   0.000000   0.000000   0.000000
     50      -0.164814   0.000000  -0.808522   0.000000   0.000000   0.260157
     51       0.000000   0.000000   0.000000   2.270426   0.000000   0.000000
     52       0.000000   0.000000   0.000000   0.000000  -0.658320   0.000000
     53       0.285466   0.000000   0.260157   0.000000   0.000000  -1.108926
     54       0.000000   1.583880   0.000000   0.000000   0.000000   0.000000
     55       0.000000   0.000000   0.000000   1.239403   0.000000   0.000000
     56      -0.002510   0.000000   0.915587   0.000000   0.000000  -0.527659
     57       0.000000   0.075836   0.000000   0.000000   0.000000   0.000000
     58       0.000000   0.000000   0.000000  -1.600063   0.000000   0.000000
     59       0.000000   0.000000   0.000000   0.000000   0.669255   0.000000
     60      -0.003240   0.000000   0.235549   0.000000   0.000000  -1.227649
     61       0.000000   0.293713   0.000000   0.000000   0.000000   0.000000
                 18         19         20         21         22         23    
      0       0.000000   0.000060   0.000000   0.000000  -0.000104   0.000000
      1       0.000000   0.004146   0.000000   0.000000  -0.007181   0.000000
      2       0.000000   0.163525   0.000000   0.000000  -0.283234   0.000000
      3       0.000000   0.387615   0.000000   0.000000  -0.671369   0.000000
      4       0.000000   0.435539   0.000000   0.000000  -0.754376   0.000000
      5       0.000000   0.000000  -0.342855   0.000000   0.000000   0.000000
      6       0.000000   0.305031   0.000000   0.000000  -0.528329   0.000000
      7      -0.577827   0.000000   0.000000   0.000000   0.000000  -0.342855
      8       0.000000   0.000000  -0.843926   0.000000   0.000000   0.000000
      9       0.000000   0.952575   0.000000   0.000000  -1.649908   0.000000
     10      -0.507148   0.000000   0.000000   0.000000   0.000000  -0.843926
     11       0.000000   0.000000  -0.656131   0.000000   0.000000   0.000000
     12       0.000000   0.782344   0.000000   0.000000  -1.355059   0.000000
     13      -0.212362   0.000000   0.000000   0.000000   0.000000  -0.656131
     14       0.000000  -3.702597   0.000000   0.000000   0.191061   0.000000
     15       0.000000   0.000000  -3.804151   0.000000   0.000000   0.000000
     16       0.000000   0.000000   0.000000  -3.592287   0.000000   0.000000
     17       0.000000   0.191061   0.000000   0.000000  -3.923215   0.000000
     18      -5.601778   0.000000   0.000000   0.000000   0.000000  -3.804151
     19       0.000000  -5.832097   0.000000   0.000000   0.720527   0.000000
     20       0.000000   0.000000  -5.996251   0.000000   0.000000   0.000000
     21       0.000000   0.000000   0.000000  -5.416101   0.000000   0.000000
     22       0.000000   0.720527   0.000000   0.000000  -6.664090   0.000000
     23      -3.804151   0.000000   0.000000   0.000000   0.000000  -5.996251
     24       0.000000   0.000000   0.598314   0.000000   0.000000   0.000000
     25       0.000000  -0.853913   0.000000   0.000000   0.610214   0.000000
     26       0.187281   0.000000   0.000000   0.000000   0.000000   0.244261
     27       0.000000   0.000000  -0.772421   0.000000   0.000000   0.000000
     28       0.000000   0.000000   0.000000  -0.549481   0.000000   0.000000
     29       0.000000  -0.325313   0.000000   0.000000   1.236433   0.000000
     30       0.725337   0.000000   0.000000   0.000000   0.000000   0.946018
     31       0.000000   1.669688   0.000000   0.000000  -2.891984   0.000000
     32       0.000000   2.464527   0.000000   0.000000  -4.268687   0.000000
     33       0.000000   3.238231   0.000000   0.000000  -5.608781   0.000000
     34       0.000000   2.660980   0.000000   0.000000  -4.608952   0.000000
     35       0.000000   1.463628   0.000000   0.000000  -2.535078   0.000000
     36       0.000000   0.000000  -2.507424   0.000000   0.000000   0.000000
     37       0.000000  -1.228462   0.000000   0.000000   2.127759   0.000000
     38      -0.596536   0.000000   0.000000   0.000000   0.000000  -2.507424
     39       0.000000   0.000000  -3.889719   0.000000   0.000000   0.000000
     40       0.000000  -0.717792   0.000000   0.000000   1.243252   0.000000
     41      -1.338942   0.000000   0.000000   0.000000   0.000000  -3.889719
     42       0.000000   0.000000  -2.504210   0.000000   0.000000   0.000000
     43       0.000000   0.266749   0.000000   0.000000  -0.462024   0.000000
     44      -0.712017   0.000000   0.000000   0.000000   0.000000  -2.504210
     45       0.000000  -0.546627   0.000000   0.000000  -0.008208   0.000000
     46       0.000000   0.000000   1.541235   0.000000   0.000000   0.000000
     47       0.000000   0.000000   0.000000  -0.551365   0.000000   0.000000
     48       0.000000  -0.008208   0.000000   0.000000  -0.537149   0.000000
     49       0.953250   0.000000   0.000000   0.000000   0.000000   1.541235
     50       0.000000  -1.313090   0.000000   0.000000  -0.830413   0.000000
     51       0.000000   0.000000   3.110136   0.000000   0.000000   0.000000
     52       0.000000   0.000000   0.000000  -1.792529   0.000000   0.000000
     53       0.000000  -0.830413   0.000000   0.000000  -0.354212   0.000000
     54       2.270426   0.000000   0.000000   0.000000   0.000000   3.110136
     55       0.000000   0.000000   0.684699   0.000000   0.000000   0.000000
     56       0.000000   0.814840   0.000000   0.000000   0.303929   0.000000
     57       0.505984   0.000000   0.000000   0.000000   0.000000   0.279527
     58       0.000000   0.000000  -0.883943   0.000000   0.000000   0.000000
     59       0.000000   0.000000   0.000000   1.084834   0.000000   0.000000
     60       0.000000  -0.482233   0.000000   0.000000  -0.493393   0.000000
     61       1.959669   0.000000   0.000000   0.000000   0.000000   1.082604
                 24         25         26         27         28         29    
      0       0.000000   0.000013   0.000000   0.000000   0.000000   0.000017
      1       0.000000   0.002878   0.000000   0.000000   0.000000   0.003715
      2       0.000000   0.126954   0.000000   0.000000   0.000000   0.163897
      3       0.000000   0.238875   0.000000   0.000000   0.000000   0.308387
      4       0.000000   0.226195   0.000000   0.000000   0.000000   0.292017
      5       0.113047   0.000000   0.000000  -0.145944   0.000000   0.000000
      6       0.000000   0.229778   0.000000   0.000000   0.000000   0.296643
      7       0.000000   0.000000   0.046151   0.000000   0.000000   0.000000
      8       0.211144   0.000000   0.000000  -0.272586   0.000000   0.000000
      9       0.000000   0.542791   0.000000   0.000000   0.000000   0.700740
     10       0.000000   0.000000   0.086199   0.000000   0.000000   0.000000
     11       0.121396   0.000000   0.000000  -0.156722   0.000000   0.000000
     12       0.000000   0.343451   0.000000   0.000000   0.000000   0.443394
     13       0.000000   0.000000   0.049560   0.000000   0.000000   0.000000
     14       0.000000  -0.617688   0.000000   0.000000   0.000000  -0.134723
     15       0.458743   0.000000   0.000000  -0.592235   0.000000   0.000000
     16       0.000000   0.000000   0.000000   0.000000  -0.468606   0.000000
     17       0.000000   0.328936   0.000000   0.000000   0.000000   0.807270
     18       0.000000   0.000000   0.187281   0.000000   0.000000   0.000000
     19       0.000000  -0.853913   0.000000   0.000000   0.000000  -0.325313
     20       0.598314   0.000000   0.000000  -0.772421   0.000000   0.000000
     21       0.000000   0.000000   0.000000   0.000000  -0.549481   0.000000
     22       0.000000   0.610214   0.000000   0.000000   0.000000   1.236433
     23       0.000000   0.000000   0.244261   0.000000   0.000000   0.000000
     24      -3.886710   0.000000   0.000000   0.341634   0.000000   0.000000
     25       0.000000  -4.241367   0.000000   0.000000   0.000000  -0.391942
     26       0.000000   0.000000  -3.666187   0.000000   0.000000   0.000000
     27       0.341634   0.000000   0.000000  -4.063129   0.000000   0.000000
     28       0.000000   0.000000   0.000000   0.000000  -3.937770   0.000000
     29       0.000000  -0.391942   0.000000   0.000000   0.000000  -4.443764
     30       0.000000   0.000000  -0.170817   0.000000   0.000000   0.000000
     31       0.000000   0.988509   0.000000   0.000000   0.000000   1.276159
     32       0.000000   1.588494   0.000000   0.000000   0.000000   2.050737
     33       0.000000   2.049995   0.000000   0.000000   0.000000   2.646532
     34       0.000000   1.299487   0.000000   0.000000   0.000000   1.677630
     35       0.000000   0.558942   0.000000   0.000000   0.000000   0.721591
     36       1.186692   0.000000   0.000000  -1.532012   0.000000   0.000000
     37       0.000000  -1.708492   0.000000   0.000000   0.000000  -2.205654
     38       0.000000   0.000000   0.484465   0.000000   0.000000   0.000000
     39       1.241968   0.000000   0.000000  -1.603373   0.000000   0.000000
     40       0.000000  -0.564628   0.000000   0.000000   0.000000  -0.728932
     41       0.000000   0.000000   0.507031   0.000000   0.000000   0.000000
     42       0.400068   0.000000   0.000000  -0.516486   0.000000   0.000000
     43       0.000000   0.007762   0.000000   0.000000   0.000000   0.010021
     44       0.000000   0.000000   0.163327   0.000000   0.000000   0.000000
     45       0.000000  -0.925456   0.000000   0.000000   0.000000  -0.192755
     46      -1.266095   0.000000   0.000000   1.634522   0.000000   0.000000
     47       0.000000   0.000000   0.000000   0.000000  -0.708523   0.000000
     48       0.000000   0.482662   0.000000   0.000000   0.000000   1.201621
     49       0.000000   0.000000  -0.516881   0.000000   0.000000   0.000000
     50       0.000000  -1.203333   0.000000   0.000000   0.000000   0.653894
     51      -1.228753   0.000000   0.000000   1.586314   0.000000   0.000000
     52       0.000000   0.000000   0.000000   0.000000  -1.560861   0.000000
     53       0.000000  -0.383703   0.000000   0.000000   0.000000   0.779079
     54       0.000000   0.000000  -0.501636   0.000000   0.000000   0.000000
     55      -0.852228   0.000000   0.000000   0.618173   0.000000   0.000000
     56       0.000000   1.347706   0.000000   0.000000   0.000000  -0.419924
     57       0.000000   0.000000  -0.453199   0.000000   0.000000   0.000000
     58       0.618173   0.000000   0.000000  -1.171451   0.000000   0.000000
     59       0.000000   0.000000   0.000000   0.000000   1.672978   0.000000
     60       0.000000  -0.419924   0.000000   0.000000   0.000000   1.130858
     61       0.000000   0.000000  -0.309086   0.000000   0.000000   0.000000
                 30         31         32         33         34         35    
      0       0.000000   0.000000  -0.000000  -0.059883  -0.668251  -1.240067
      1       0.000000  -0.000003  -0.000325  -0.168792  -1.137687  -1.982846
      2       0.000000  -0.188127  -0.365709  -1.349248  -2.814289  -3.833435
      3       0.000000  -0.977250  -1.551093  -3.017286  -4.345722  -5.159307
      4       0.000000  -1.283394  -2.001162  -3.580518  -4.783532  -5.620300
      5       0.000000   0.000000   0.000000   0.000000   0.000000   0.000000
      6       0.000000  -0.180449  -0.391258  -1.578680  -2.366388  -1.789451
      7       0.178744   0.000000   0.000000   0.000000   0.000000   0.000000
      8       0.000000   0.000000   0.000000   0.000000   0.000000   0.000000
      9       0.000000  -2.180735  -3.359583  -5.472664  -5.865344  -4.429716
     10       0.333848   0.000000   0.000000   0.000000   0.000000   0.000000
     11       0.000000   0.000000   0.000000   0.000000   0.000000   0.000000
     12       0.000000  -2.112548  -3.236346  -5.212482  -5.848182  -5.147277
     13       0.191944   0.000000   0.000000   0.000000   0.000000   0.000000
     14       0.000000   0.074582   0.202417   0.784164   0.755593   0.362981
     15       0.000000   0.000000   0.000000   0.000000   0.000000   0.000000
     16       0.000000   0.000000   0.000000   0.000000   0.000000   0.000000
     17       0.000000  -0.129180  -0.350597  -1.358212  -1.308725  -0.628702
     18       0.725337   0.000000   0.000000   0.000000   0.000000   0.000000
     19       0.000000   1.669688   2.464527   3.238231   2.660980   1.463628
     20       0.000000   0.000000   0.000000   0.000000   0.000000   0.000000
     21       0.000000   0.000000   0.000000   0.000000   0.000000   0.000000
     22       0.000000  -2.891984  -4.268687  -5.608781  -4.608952  -2.535078
     23       0.946018   0.000000   0.000000   0.000000   0.000000   0.000000
     24       0.000000   0.000000   0.000000   0.000000   0.000000   0.000000
     25       0.000000   0.988509   1.588494   2.049995   1.299487   0.558942
     26      -0.170817   0.000000   0.000000   0.000000   0.000000   0.000000
     27       0.000000   0.000000   0.000000   0.000000   0.000000   0.000000
     28       0.000000   0.000000   0.000000   0.000000   0.000000   0.000000
     29       0.000000   1.276159   2.050737   2.646532   1.677630   0.721591
     30      -4.283653   0.000000   0.000000   0.000000   0.000000   0.000000
     31       0.000000 -24.696566 -32.087416 -11.404116  -6.005125  -3.072981
     32       0.000000 -32.087416 -28.922334 -15.198199  -8.790038  -4.697530
     33       0.000000 -11.404116 -15.198199 -15.255097 -11.776539  -7.527902
     34       0.000000  -6.005125  -8.790038 -11.776539 -11.196752  -8.609007
     35       0.000000  -3.072981  -4.697530  -7.527902  -8.609007  -8.222576
     36       0.000000   0.000000   0.000000   0.000000   0.000000   0.000000
     37       0.000000   0.027218   0.181978   0.607656   0.595412   0.420442
     38       1.876324   0.000000   0.000000   0.000000   0.000000   0.000000
     39       0.000000   0.000000   0.000000   0.000000   0.000000   0.000000
     40       0.000000   0.003194   0.047723   0.557597   1.042524   1.127493
     41       1.963723   0.000000   0.000000   0.000000   0.000000   0.000000
     42       0.000000   0.000000   0.000000   0.000000   0.000000   0.000000
     43       0.000000   0.000821   0.013739   0.249508   0.719496   1.141228
     44       0.632563   0.000000   0.000000   0.000000   0.000000   0.000000
     45       0.000000   0.000304   0.011405   0.101343   0.111915   0.081307
     46       0.000000   0.000000   0.000000   0.000000   0.000000   0.000000
     47       0.000000   0.000000   0.000000   0.000000   0.000000   0.000000
     48       0.000000  -0.000526  -0.019754  -0.175531  -0.193843  -0.140828
     49      -2.001872   0.000000   0.000000   0.000000   0.000000   0.000000
     50       0.000000   0.000039   0.002765   0.105754   0.279629   0.346162
     51       0.000000   0.000000   0.000000   0.000000   0.000000   0.000000
     52       0.000000   0.000000   0.000000   0.000000   0.000000   0.000000
     53       0.000000  -0.000067  -0.004790  -0.183171  -0.484332  -0.599570
     54      -1.942829   0.000000   0.000000   0.000000   0.000000   0.000000
     55       0.000000   0.000000   0.000000   0.000000   0.000000   0.000000
     56       0.000000  -0.000006  -0.001544  -0.069958  -0.144064  -0.145390
     57      -0.309086   0.000000   0.000000   0.000000   0.000000   0.000000
     58       0.000000   0.000000   0.000000   0.000000   0.000000   0.000000
     59       0.000000   0.000000   0.000000   0.000000   0.000000   0.000000
     60       0.000000  -0.000008  -0.001994  -0.090315  -0.185985  -0.187698
     61      -1.570479   0.000000   0.000000   0.000000   0.000000   0.000000
                 36         37         38         39         40         41    
      0       0.000000   0.058163   0.000000   0.000000   1.685058   0.000000
      1       0.000000   0.196922   0.000000   0.000000   2.721947   0.000000
      2       0.000000   1.442003   0.000000   0.000000   4.854128   0.000000
      3       0.000000   1.869523   0.000000   0.000000   4.822873   0.000000
      4       0.000000   1.136216   0.000000   0.000000   3.118127   0.000000
      5      -0.317035   0.000000   0.000000  -1.231501   0.000000   0.000000
      6       0.000000   1.830650   0.000000   0.000000   3.511133   0.000000
      7       0.000000   0.000000  -0.317035   0.000000   0.000000  -1.231501
      8      -1.187445   0.000000   0.000000  -2.692468   0.000000   0.000000
      9       0.000000   2.854952   0.000000   0.000000   3.978891   0.000000
     10       0.000000   0.000000  -1.187445   0.000000   0.000000  -2.692468
     11      -1.124672   0.000000   0.000000  -2.642240   0.000000   0.000000
     12       0.000000   0.556739   0.000000   0.000000   0.781888   0.000000
     13       0.000000   0.000000  -1.124672   0.000000   0.000000  -2.642240
     14       0.000000  -0.984343   0.000000   0.000000  -0.854679   0.000000
     15      -0.596536   0.000000   0.000000  -1.338942   0.000000   0.000000
     16       0.000000   0.000000   0.000000   0.000000   0.000000   0.000000
     17       0.000000   1.704931   0.000000   0.000000   1.480347   0.000000
     18       0.000000   0.000000  -0.596536   0.000000   0.000000  -1.338942
     19       0.000000  -1.228462   0.000000   0.000000  -0.717792   0.000000
     20      -2.507424   0.000000   0.000000  -3.889719   0.000000   0.000000
     21       0.000000   0.000000   0.000000   0.000000   0.000000   0.000000
     22       0.000000   2.127759   0.000000   0.000000   1.243252   0.000000
     23       0.000000   0.000000  -2.507424   0.000000   0.000000  -3.889719
     24       1.186692   0.000000   0.000000   1.241968   0.000000   0.000000
     25       0.000000  -1.708492   0.000000   0.000000  -0.564628   0.000000
     26       0.000000   0.000000   0.484465   0.000000   0.000000   0.507031
     27      -1.532012   0.000000   0.000000  -1.603373   0.000000   0.000000
     28       0.000000   0.000000   0.000000   0.000000   0.000000   0.000000
     29       0.000000  -2.205654   0.000000   0.000000  -0.728932   0.000000
     30       0.000000   0.000000   1.876324   0.000000   0.000000   1.963723
     31       0.000000   0.027218   0.000000   0.000000   0.003194   0.000000
     32       0.000000   0.181978   0.000000   0.000000   0.047723   0.000000
     33       0.000000   0.607656   0.000000   0.000000   0.557597   0.000000
     34       0.000000   0.595412   0.000000   0.000000   1.042524   0.000000
     35       0.000000   0.420442   0.000000   0.000000   1.127493   0.000000
     36     -10.954164   0.000000   0.000000  -6.431304   0.000000   0.000000
     37       0.000000 -11.187885   0.000000   0.000000  -6.697158   0.000000
     38       0.000000   0.000000 -10.954164   0.000000   0.000000  -6.431304
     39      -6.431304   0.000000   0.000000  -7.753813   0.000000   0.000000
     40       0.000000  -6.697158   0.000000   0.000000  -8.633497   0.000000
     41       0.000000   0.000000  -6.431304   0.000000   0.000000  -7.753813
     42      -2.530601   0.000000   0.000000  -4.944240   0.000000   0.000000
     43       0.000000  -2.655878   0.000000   0.000000  -5.694639   0.000000
     44       0.000000   0.000000  -2.530601   0.000000   0.000000  -4.944240
     45       0.000000  -0.311160   0.000000   0.000000  -0.281558   0.000000
     46       0.448842   0.000000   0.000000   0.372360   0.000000   0.000000
     47       0.000000   0.000000   0.000000   0.000000   0.000000   0.000000
     48       0.000000   0.538944   0.000000   0.000000   0.487672   0.000000
     49       0.000000   0.000000   0.448842   0.000000   0.000000   0.372360
     50       0.000000  -0.231274   0.000000   0.000000  -0.751282   0.000000
     51       0.286803   0.000000   0.000000   0.726489   0.000000   0.000000
     52       0.000000   0.000000   0.000000   0.000000   0.000000   0.000000
     53       0.000000   0.400578   0.000000   0.000000   1.301259   0.000000
     54       0.000000   0.000000   0.286803   0.000000   0.000000   0.726489
     55       0.080303   0.000000   0.000000   0.157988   0.000000   0.000000
     56       0.000000   0.145409   0.000000   0.000000   0.353297   0.000000
     57       0.000000   0.000000   0.032784   0.000000   0.000000   0.064498
     58      -0.103671   0.000000   0.000000  -0.203962   0.000000   0.000000
     59       0.000000   0.000000   0.000000   0.000000   0.000000   0.000000
     60       0.000000   0.187723   0.000000   0.000000   0.456105   0.000000
     61       0.000000   0.000000   0.126970   0.000000   0.000000   0.249801
                 42         43         44         45         46         47    
      0       0.000000   2.255173   0.000000   0.010479   0.000000   0.000000
      1       0.000000   3.501148   0.000000   0.071681   0.000000   0.000000
      2       0.000000   5.631477   0.000000   0.511619   0.000000   0.000000
      3       0.000000   5.833154   0.000000   0.385611   0.000000   0.000000
      4       0.000000   4.441584   0.000000   0.148373   0.000000   0.000000
      5      -1.424688   0.000000   0.000000   0.000000   0.455185   0.000000
      6       0.000000   1.091688   0.000000   0.729707   0.000000   0.000000
      7       0.000000   0.000000  -1.424688   0.000000   0.000000   0.000000
      8      -3.101397   0.000000   0.000000   0.000000   0.893006   0.000000
      9       0.000000   1.245828   0.000000   0.447052   0.000000   0.000000
     10       0.000000   0.000000  -3.101397   0.000000   0.000000   0.000000
     11      -3.782874   0.000000   0.000000   0.000000   0.371713   0.000000
     12       0.000000  -0.466114   0.000000  -0.000559   0.000000   0.000000
     13       0.000000   0.000000  -3.782874   0.000000   0.000000   0.000000
     14       0.000000  -0.056003   0.000000  -0.531564   0.000000   0.000000
     15      -0.712017   0.000000   0.000000   0.000000   0.953250   0.000000
     16       0.000000   0.000000   0.000000   0.000000   0.000000  -0.128094
     17       0.000000   0.097000   0.000000   0.698832   0.000000   0.000000
     18       0.000000   0.000000  -0.712017   0.000000   0.000000   0.000000
     19       0.000000   0.266749   0.000000  -0.546627   0.000000   0.000000
     20      -2.504210   0.000000   0.000000   0.000000   1.541235   0.000000
     21       0.000000   0.000000   0.000000   0.000000   0.000000  -0.551365
     22       0.000000  -0.462024   0.000000  -0.008208   0.000000   0.000000
     23       0.000000   0.000000  -2.504210   0.000000   0.000000   0.000000
     24       0.400068   0.000000   0.000000   0.000000  -1.266095   0.000000
     25       0.000000   0.007762   0.000000  -0.925456   0.000000   0.000000
     26       0.000000   0.000000   0.163327   0.000000   0.000000   0.000000
     27      -0.516486   0.000000   0.000000   0.000000   1.634522   0.000000
     28       0.000000   0.000000   0.000000   0.000000   0.000000  -0.708523
     29       0.000000   0.010021   0.000000  -0.192755   0.000000   0.000000
     30       0.000000   0.000000   0.632563   0.000000   0.000000   0.000000
     31       0.000000   0.000821   0.000000   0.000304   0.000000   0.000000
     32       0.000000   0.013739   0.000000   0.011405   0.000000   0.000000
     33       0.000000   0.249508   0.000000   0.101343   0.000000   0.000000
     34       0.000000   0.719496   0.000000   0.111915   0.000000   0.000000
     35       0.000000   1.141228   0.000000   0.081307   0.000000   0.000000
     36      -2.530601   0.000000   0.000000   0.000000   0.448842   0.000000
     37       0.000000  -2.655878   0.000000  -0.311160   0.000000   0.000000
     38       0.000000   0.000000  -2.530601   0.000000   0.000000   0.000000
     39      -4.944240   0.000000   0.000000   0.000000   0.372360   0.000000
     40       0.000000  -5.694639   0.000000  -0.281558   0.000000   0.000000
     41       0.000000   0.000000  -4.944240   0.000000   0.000000   0.000000
     42      -5.475521   0.000000   0.000000   0.000000   0.145925   0.000000
     43       0.000000  -6.488797   0.000000  -0.114564   0.000000   0.000000
     44       0.000000   0.000000  -5.475521   0.000000   0.000000   0.000000
     45       0.000000  -0.114564   0.000000  -5.396946   0.000000   0.000000
     46       0.145925   0.000000   0.000000   0.000000  -5.510861   0.000000
     47       0.000000   0.000000   0.000000   0.000000   0.000000  -5.318577
     48       0.000000   0.198432   0.000000   0.135738   0.000000   0.000000
     49       0.000000   0.000000   0.145925   0.000000   0.000000   0.000000
     50       0.000000  -0.631226   0.000000  -4.023906   0.000000   0.000000
     51       0.549518   0.000000   0.000000   0.000000  -4.101273   0.000000
     52       0.000000   0.000000   0.000000   0.000000   0.000000  -3.958447
     53       0.000000   1.093315   0.000000   0.113377   0.000000   0.000000
     54       0.000000   0.000000   0.549518   0.000000   0.000000   0.000000
     55       0.089518   0.000000   0.000000   0.000000  -0.331250   0.000000
     56       0.000000   0.222971   0.000000   0.443686   0.000000   0.000000
     57       0.000000   0.000000   0.036545   0.000000   0.000000   0.000000
     58      -0.115567   0.000000   0.000000   0.000000   0.427642   0.000000
     59       0.000000   0.000000   0.000000   0.000000   0.000000   0.356487
     60       0.000000   0.287854   0.000000   0.068647   0.000000   0.000000
     61       0.000000   0.000000   0.141540   0.000000   0.000000   0.000000
                 48         49         50         51         52         53    
      0      -0.018150   0.000000   1.233669   0.000000   0.000000  -2.136778
      1      -0.124156   0.000000   1.894332   0.000000   0.000000  -3.281079
      2      -0.886150   0.000000   2.484602   0.000000   0.000000  -4.303458
      3      -0.667897   0.000000   1.737928   0.000000   0.000000  -3.010179
      4      -0.256989   0.000000   0.808513   0.000000   0.000000  -1.400385
      5       0.000000   0.000000   0.000000   2.342354   0.000000   0.000000
      6      -1.263889   0.000000   1.597545   0.000000   0.000000  -2.767029
      7       0.000000   0.455185   0.000000   0.000000   0.000000   0.000000
      8       0.000000   0.000000   0.000000   3.145526   0.000000   0.000000
      9      -0.774317   0.000000   0.680903   0.000000   0.000000  -1.179359
     10       0.000000   0.893006   0.000000   0.000000   0.000000   0.000000
     11       0.000000   0.000000   0.000000   1.583880   0.000000   0.000000
     12       0.000969   0.000000  -0.164814   0.000000   0.000000   0.285466
     13       0.000000   0.371713   0.000000   0.000000   0.000000   0.000000
     14       0.698832   0.000000  -0.808522   0.000000   0.000000   0.260157
     15       0.000000   0.000000   0.000000   2.270426   0.000000   0.000000
     16       0.000000   0.000000   0.000000   0.000000  -0.658320   0.000000
     17      -1.338505   0.000000   0.260157   0.000000   0.000000  -1.108926
     18       0.000000   0.953250   0.000000   0.000000   0.000000   0.000000
     19      -0.008208   0.000000  -1.313090   0.000000   0.000000  -0.830413
     20       0.000000   0.000000   0.000000   3.110136   0.000000   0.000000
     21       0.000000   0.000000   0.000000   0.000000  -1.792529   0.000000
     22      -0.537149   0.000000  -0.830413   0.000000   0.000000  -0.354212
     23       0.000000   1.541235   0.000000   0.000000   0.000000   0.000000
     24       0.000000   0.000000   0.000000  -1.228753   0.000000   0.000000
     25       0.482662   0.000000  -1.203333   0.000000   0.000000  -0.383703
     26       0.000000  -0.516881   0.000000   0.000000   0.000000   0.000000
     27       0.000000   0.000000   0.000000   1.586314   0.000000   0.000000
     28       0.000000   0.000000   0.000000   0.000000  -1.560861   0.000000
     29       1.201621   0.000000   0.653894   0.000000   0.000000   0.779079
     30       0.000000  -2.001872   0.000000   0.000000   0.000000   0.000000
     31      -0.000526   0.000000   0.000039   0.000000   0.000000  -0.000067
     32      -0.019754   0.000000   0.002765   0.000000   0.000000  -0.004790
     33      -0.175531   0.000000   0.105754   0.000000   0.000000  -0.183171
     34      -0.193843   0.000000   0.279629   0.000000   0.000000  -0.484332
     35      -0.140828   0.000000   0.346162   0.000000   0.000000  -0.599570
     36       0.000000   0.000000   0.000000   0.286803   0.000000   0.000000
     37       0.538944   0.000000  -0.231274   0.000000   0.000000   0.400578
     38       0.000000   0.448842   0.000000   0.000000   0.000000   0.000000
     39       0.000000   0.000000   0.000000   0.726489   0.000000   0.000000
     40       0.487672   0.000000  -0.751282   0.000000   0.000000   1.301259
     41       0.000000   0.372360   0.000000   0.000000   0.000000   0.000000
     42       0.000000   0.000000   0.000000   0.549518   0.000000   0.000000
     43       0.198432   0.000000  -0.631226   0.000000   0.000000   1.093315
     44       0.000000   0.145925   0.000000   0.000000   0.000000   0.000000
     45       0.135738   0.000000  -4.023906   0.000000   0.000000   0.113377
     46       0.000000   0.000000   0.000000  -4.101273   0.000000   0.000000
     47       0.000000   0.000000   0.000000   0.000000  -3.958447   0.000000
     48      -5.553682   0.000000   0.113377   0.000000   0.000000  -4.154822
     49       0.000000  -5.510861   0.000000   0.000000   0.000000   0.000000
     50       0.113377   0.000000  -6.258927   0.000000   0.000000   0.526129
     51       0.000000   0.000000   0.000000  -6.422514   0.000000   0.000000
     52       0.000000   0.000000   0.000000   0.000000  -5.955167   0.000000
     53      -4.154822   0.000000   0.526129   0.000000   0.000000  -6.866449
     54       0.000000  -4.101273   0.000000   0.000000   0.000000   0.000000
     55       0.000000   0.000000   0.000000  -0.489281   0.000000   0.000000
     56      -0.204831   0.000000   0.672763   0.000000   0.000000  -0.415987
     57       0.000000  -0.135232   0.000000   0.000000   0.000000   0.000000
     58       0.000000   0.000000   0.000000   0.631659   0.000000   0.000000
     59       0.000000   0.000000   0.000000   0.000000   0.473882   0.000000
     60      -0.555506   0.000000   0.198363   0.000000   0.000000  -0.923959
     61       0.000000  -0.523752   0.000000   0.000000   0.000000   0.000000
                 54         55         56         57         58         59    
      0       0.000000   0.000000  -0.412075   0.000000   0.000000   0.000000
      1       0.000000   0.000000  -0.823232   0.000000   0.000000   0.000000
      2       0.000000   0.000000  -1.151130   0.000000   0.000000   0.000000
      3       0.000000   0.000000  -0.589477   0.000000   0.000000   0.000000
      4       0.000000   0.000000  -0.232492   0.000000   0.000000   0.000000
      5       0.000000   0.855501   0.000000   0.000000  -1.104447   0.000000
      6       0.000000   0.000000  -1.320854   0.000000   0.000000   0.000000
      7       2.342354   0.000000   0.000000   0.349257   0.000000   0.000000
      8       0.000000   0.723576   0.000000   0.000000  -0.934133   0.000000
      9       0.000000   0.000000  -0.275975   0.000000   0.000000   0.000000
     10       3.145526   0.000000   0.000000   0.295399   0.000000   0.000000
     11       0.000000   0.185760   0.000000   0.000000  -0.239815   0.000000
     12       0.000000   0.000000  -0.002510   0.000000   0.000000   0.000000
     13       1.583880   0.000000   0.000000   0.075836   0.000000   0.000000
     14       0.000000   0.000000   0.915587   0.000000   0.000000   0.000000
     15       0.000000   1.239403   0.000000   0.000000  -1.600063   0.000000
     16       0.000000   0.000000   0.000000   0.000000   0.000000   0.669255
     17       0.000000   0.000000  -0.527659   0.000000   0.000000   0.000000
     18       2.270426   0.000000   0.000000   0.505984   0.000000   0.000000
     19       0.000000   0.000000   0.814840   0.000000   0.000000   0.000000
     20       0.000000   0.684699   0.000000   0.000000  -0.883943   0.000000
     21       0.000000   0.000000   0.000000   0.000000   0.000000   1.084834
     22       0.000000   0.000000   0.303929   0.000000   0.000000   0.000000
     23       3.110136   0.000000   0.000000   0.279527   0.000000   0.000000
     24       0.000000  -0.852228   0.000000   0.000000   0.618173   0.000000
     25       0.000000   0.000000   1.347706   0.000000   0.000000   0.000000
     26      -0.501636   0.000000   0.000000  -0.453199   0.000000   0.000000
     27       0.000000   0.618173   0.000000   0.000000  -1.171451   0.000000
     28       0.000000   0.000000   0.000000   0.000000   0.000000   1.672978
     29       0.000000   0.000000  -0.419924   0.000000   0.000000   0.000000
     30      -1.942829   0.000000   0.000000  -0.309086   0.000000   0.000000
     31       0.000000   0.000000  -0.000006   0.000000   0.000000   0.000000
     32       0.000000   0.000000  -0.001544   0.000000   0.000000   0.000000
     33       0.000000   0.000000  -0.069958   0.000000   0.000000   0.000000
     34       0.000000   0.000000  -0.144064   0.000000   0.000000   0.000000
     35       0.000000   0.000000  -0.145390   0.000000   0.000000   0.000000
     36       0.000000   0.080303   0.000000   0.000000  -0.103671   0.000000
     37       0.000000   0.000000   0.145409   0.000000   0.000000   0.000000
     38       0.286803   0.000000   0.000000   0.032784   0.000000   0.000000
     39       0.000000   0.157988   0.000000   0.000000  -0.203962   0.000000
     40       0.000000   0.000000   0.353297   0.000000   0.000000   0.000000
     41       0.726489   0.000000   0.000000   0.064498   0.000000   0.000000
     42       0.000000   0.089518   0.000000   0.000000  -0.115567   0.000000
     43       0.000000   0.000000   0.222971   0.000000   0.000000   0.000000
     44       0.549518   0.000000   0.000000   0.036545   0.000000   0.000000
     45       0.000000   0.000000   0.443686   0.000000   0.000000   0.000000
     46       0.000000  -0.331250   0.000000   0.000000   0.427642   0.000000
     47       0.000000   0.000000   0.000000   0.000000   0.000000   0.356487
     48       0.000000   0.000000  -0.204831   0.000000   0.000000   0.000000
     49      -4.101273   0.000000   0.000000  -0.135232   0.000000   0.000000
     50       0.000000   0.000000   0.672763   0.000000   0.000000   0.000000
     51       0.000000  -0.489281   0.000000   0.000000   0.631659   0.000000
     52       0.000000   0.000000   0.000000   0.000000   0.000000   0.473882
     53       0.000000   0.000000  -0.415987   0.000000   0.000000   0.000000
     54      -6.422514   0.000000   0.000000  -0.199748   0.000000   0.000000
     55       0.000000  -3.621671   0.000000   0.000000   0.243701   0.000000
     56       0.000000   0.000000  -3.852002   0.000000   0.000000   0.000000
     57      -0.199748   0.000000   0.000000  -3.464363   0.000000   0.000000
     58       0.000000   0.243701   0.000000   0.000000  -3.747518   0.000000
     59       0.000000   0.000000   0.000000   0.000000   0.000000  -3.672087
     60       0.000000   0.000000  -0.232269   0.000000   0.000000   0.000000
     61      -0.773621   0.000000   0.000000  -0.121850   0.000000   0.000000
                 60         61    
      0      -0.531987   0.000000
      1      -1.062788   0.000000
      2      -1.486102   0.000000
      3      -0.761012   0.000000
      4      -0.300146   0.000000
      5       0.000000   0.000000
      6      -1.705215   0.000000
      7       0.000000   1.352666
      8       0.000000   0.000000
      9      -0.356282   0.000000
     10       0.000000   1.144075
     11       0.000000   0.000000
     12      -0.003240   0.000000
     13       0.000000   0.293713
     14       0.235549   0.000000
     15       0.000000   0.000000
     16       0.000000   0.000000
     17      -1.227649   0.000000
     18       0.000000   1.959669
     19      -0.482233   0.000000
     20       0.000000   0.000000
     21       0.000000   0.000000
     22      -0.493393   0.000000
     23       0.000000   1.082604
     24       0.000000   0.000000
     25      -0.419924   0.000000
     26       0.000000  -0.309086
     27       0.000000   0.000000
     28       0.000000   0.000000
     29       1.130858   0.000000
     30       0.000000  -1.570479
     31      -0.000008   0.000000
     32      -0.001994   0.000000
     33      -0.090315   0.000000
     34      -0.185985   0.000000
     35      -0.187698   0.000000
     36       0.000000   0.000000
     37       0.187723   0.000000
     38       0.000000   0.126970
     39       0.000000   0.000000
[...]
 0 N  dz2            11.1       0.6       0.0       0.0       1.4       0.0
 0 N  dxz             0.0       0.0      10.7       0.0       0.0       6.8
 0 N  dx2y2           5.5       1.8       0.0       0.0       4.6       0.0
 0 N  dxy             0.0       0.0       0.0      11.4       0.0       0.0
 0 N  f0              0.0       0.0       0.7       0.0       0.0       2.9
 0 N  f+1             1.4       2.0       0.0       0.0       2.9       0.0
 0 N  f-1             0.0       0.0       0.0       0.1       0.0       0.0
 0 N  f+2             0.0       0.0       1.3       0.0       0.0       4.5
 0 N  f+3             0.9       3.3       0.0       0.0       4.8       0.0
 0 N  f-3             0.0       0.0       0.0       2.2       0.0       0.0
 1 O  s               0.0       1.2       0.0       0.0       6.6       0.0
 1 O  pz              0.0       0.0       2.0       0.0       0.0      15.0
 1 O  px              0.0       4.5       0.0       0.0      24.8       0.0
 1 O  py              0.0       0.0       0.0       2.1       0.0       0.0
 1 O  dz2            62.2       0.5       0.0       0.0       5.5       0.0
 1 O  dxz             0.0       0.0      33.3       0.0       0.0      24.9
 1 O  dx2y2          18.7       1.8       0.0       0.0      19.4       0.0
 1 O  dxy             0.0       0.0       0.0      35.6       0.0       0.0
 1 O  f0              0.0       0.0       0.4       0.0       0.0       0.5
 1 O  f+1             0.1       0.2       0.0       0.0       0.2       0.0
 1 O  f+2             0.0       0.0       0.7       0.0       0.0       0.8
 1 O  f+3             0.1       0.3       0.0       0.0       0.3       0.0
 1 O  f-3             0.0       0.0       0.0       1.1       0.0       0.0

                     30        31        32        33        34        35   
                   2.03150   2.24051   2.53448   2.56522   2.69981   3.63839
                   0.00000   0.00000   0.00000   0.00000   0.00000   0.00000
                  --------  --------  --------  --------  --------  --------
 0 N  s               0.0       7.2       0.0       0.0       2.7       2.1
 0 N  pz              0.0       0.0       4.6       0.0       0.0       0.0
 0 N  px              0.0      46.4       0.0       0.0       1.7       0.9
 0 N  py             48.1       0.0       0.0       4.8       0.0       0.0
 0 N  dz2             0.0       0.4       0.0       0.0       0.2       9.4
 0 N  dxz             0.0       0.0       1.0       0.0       0.0       0.0
 0 N  dx2y2           0.0       1.3       0.0       0.0       0.6      22.7
 0 N  dxy             6.2       0.0       0.0       1.0       0.0       0.0
 0 N  f0              0.0       0.0       3.8       0.0       0.0       0.0
 0 N  f+1             0.0       5.0       0.0       0.0       0.1       1.0
 0 N  f-1             0.5       0.0       0.0       0.7       0.0       0.0
 0 N  f+2             0.0       0.0       6.0       0.0       0.0       0.0
 0 N  f+3             0.0       7.7       0.0       0.0       0.1       0.7
 0 N  f-3             6.5       0.0       0.0       9.1       0.0       0.0
 1 O  s               0.0       1.8       0.0       0.0      59.8      28.3
 1 O  pz              0.0       0.0      80.5       0.0       0.0       0.0
 1 O  px              0.0       2.8       0.0       0.0      27.9      27.5
 1 O  py             15.0       0.0       0.0      80.3       0.0       0.0
 1 O  dz2             0.0       5.3       0.0       0.0       1.3       0.7
 1 O  dxz             0.0       0.0       2.0       0.0       0.0       0.0
 1 O  dx2y2           0.0      16.0       0.0       0.0       4.6       1.9
 1 O  dxy            22.5       0.0       0.0       2.0       0.0       0.0
 1 O  f0              0.0       0.0       0.8       0.0       0.0       0.0
 1 O  f+1             0.0       2.4       0.0       0.0       0.4       1.6
 1 O  f-1             0.1       0.0       0.0       0.1       0.0       0.0
 1 O  f+2             0.0       0.0       1.2       0.0       0.0       0.0
 1 O  f+3             0.0       3.8       0.0       0.0       0.6       3.2
 1 O  f-3             1.2       0.0       0.0       1.9       0.0       0.0

                     36        37        38        39        40        41   
                   3.68105   3.68108   3.73527   3.73537   3.89688   3.92957
                   0.00000   0.00000   0.00000   0.00000   0.00000   0.00000
                  --------  --------  --------  --------  --------  --------
 0 N  pz              0.0       0.0       0.0       0.0       0.7       0.0
 0 N  py              0.0       0.0       0.0       0.0       0.0       0.7
 0 N  dz2             1.4       0.0       0.0       0.0       0.0       0.0
 0 N  dxz             0.0       0.0       0.0       0.0      45.0       0.0
 0 N  dyz             0.0       2.1       0.0       0.0       0.0       0.0
 0 N  dx2y2           0.8       0.0       0.0       0.0       0.0       0.0
 0 N  dxy             0.0       0.0       0.0       0.0       0.0      44.4
 0 N  f0              0.0       0.0      63.0       0.0       5.5       0.0
 0 N  f+1            49.1       0.0       0.0       0.0       0.0       0.0
 0 N  f-1             0.0       0.0       0.0      92.4       0.0       0.6
 0 N  f+2             0.0       0.0      34.7       0.0      13.3       0.0
 0 N  f-2             0.0      78.8       0.0       0.0       0.0       0.0
 0 N  f+3            29.6       0.0       0.0       0.0       0.0       0.0
 0 N  f-3             0.0       0.0       0.0       5.3       0.0      18.3
 1 O  pz              0.0       0.0       0.0       0.0       1.0       0.0
 1 O  py              0.0       0.0       0.0       0.0       0.0       1.0
 1 O  dz2             1.3       0.0       0.0       0.0       0.0       0.0
 1 O  dxz             0.0       0.0       0.0       0.0       3.3       0.0
 1 O  dyz             0.0       1.7       0.0       0.0       0.0       0.0
 1 O  dx2y2           0.4       0.0       0.0       0.0       0.0       0.0
 1 O  dxy             0.0       0.0       0.0       0.0       0.0       3.3
 1 O  f0              0.0       0.0       1.7       0.0      11.6       0.0
 1 O  f+1            11.2       0.0       0.0       0.0       0.0       0.0
 1 O  f-1             0.0       0.0       0.0       2.2       0.0       2.0
 1 O  f+2             0.0       0.0       0.5       0.0      19.7       0.0
 1 O  f-2             0.0      17.4       0.0       0.0       0.0       0.0
 1 O  f+3             6.1       0.0       0.0       0.0       0.0       0.0
 1 O  f-3             0.0       0.0       0.0       0.0       0.0      29.7

                     42        43        44        45        46        47   
                   4.31997   4.32139   4.54053   4.60314   4.64148   4.95966
                   0.00000   0.00000   0.00000   0.00000   0.00000   0.00000
                  --------  --------  --------  --------  --------  --------
 0 N  s               0.0       0.0       1.9       0.0       0.0       0.0
 0 N  pz              0.0       0.0       0.0       1.1       0.0       0.0
 0 N  px              0.0       0.0       1.3       0.0       0.0       0.0
 0 N  py              0.0       0.0       0.0       0.0       1.0       0.0
 0 N  dz2            76.2       0.0       6.5       0.0       0.0       0.0
 0 N  dxz             0.0       0.0       0.0      47.9       0.0       0.0
 0 N  dyz             0.0      97.6       0.0       0.0       0.0       0.0
 0 N  dx2y2          20.9       0.0      36.1       0.0       0.0       0.0
 0 N  dxy             0.0       0.0       0.0       0.0      48.4       0.0
 0 N  f0              0.0       0.0       0.0      14.7       0.0       1.4
 0 N  f+1             1.5       0.0       2.7       0.0       0.0       0.0
 0 N  f-1             0.0       0.0       0.0       0.0       2.3       0.0
 0 N  f+2             0.0       0.0       0.0      25.9       0.0       0.8
 0 N  f-2             0.0       1.8       0.0       0.0       0.0       0.0
 0 N  f+3             0.4       0.0       4.8       0.0       0.0       0.0
 0 N  f-3             0.0       0.0       0.0       0.0      38.1       0.0
 1 O  s               0.1       0.0       3.2       0.0       0.0       0.0
 1 O  pz              0.0       0.0       0.0       2.6       0.0       0.0
 1 O  px              0.1       0.0       3.0       0.0       0.0       0.0
 1 O  py              0.0       0.0       0.0       0.0       2.6       0.0
 1 O  dz2             0.2       0.0       0.5       0.0       0.0       0.0
 1 O  dxz             0.0       0.0       0.0       2.2       0.0       0.0
 1 O  dyz             0.0       0.3       0.0       0.0       0.0       0.0
 1 O  dx2y2           0.1       0.0       1.6       0.0       0.0       0.0
 1 O  dxy             0.0       0.0       0.0       0.0       2.2       0.0
 1 O  f0              0.0       0.0       0.0       2.2       0.0      61.1
 1 O  f+1             0.0       0.0      15.3       0.0       0.0       0.0
 1 O  f-1             0.0       0.0       0.0       0.0       0.4       0.0
 1 O  f+2             0.0       0.0       0.0       3.5       0.0      36.7
 1 O  f-2             0.0       0.2       0.0       0.0       0.0       0.0
 1 O  f+3             0.5       0.0      23.1       0.0       0.0       0.0
 1 O  f-3             0.0       0.0       0.0       0.0       5.1       0.0

                     48        49        50        51        52        53   
                   4.95968   5.08442   5.42218   5.42225   6.06025   6.06045
                   0.00000   0.00000   0.00000   0.00000   0.00000   0.00000
                  --------  --------  --------  --------  --------  --------
 0 N  s               0.0       8.8       0.0       0.0       0.0       0.0
 0 N  px              0.0       8.8       0.0       0.0       0.0       0.0
 0 N  dz2             0.0       0.6       0.0       0.5       0.2       0.0
 0 N  dyz             0.0       0.0       0.6       0.0       0.0       0.3
 0 N  dx2y2           0.0       1.8       0.0       0.2       0.1       0.0
 0 N  f+1             0.0      17.9       0.0       9.5       0.5       0.0
 0 N  f-1             2.1       0.0       0.0       0.0       0.0       0.0
 0 N  f-2             0.0       0.0      16.0       0.0       0.0       1.0
 0 N  f+3             0.0      30.6       0.0       6.4       0.5       0.0
 0 N  f-3             0.1       0.0       0.0       0.0       0.0       0.0
 1 O  s               0.0       6.5       0.0       0.0       0.0       0.0
 1 O  px              0.0       3.6       0.0       0.0       0.0       0.0
 1 O  dz2             0.0       4.6       0.0       4.5      71.6       0.0
 1 O  dyz             0.0       0.0       5.8       0.0       0.0      94.6
 1 O  dx2y2           0.0      12.8       0.0       1.3      22.9       0.0
 1 O  f+1             0.0       1.2       0.0      48.3       2.6       0.0
 1 O  f-1            91.7       0.0       0.0       0.0       0.0       0.0
 1 O  f-2             0.0       0.0      77.6       0.0       0.0       4.1
 1 O  f+3             0.0       2.8       0.0      29.3       1.5       0.0
 1 O  f-3             6.1       0.0       0.0       0.0       0.0       0.0

                     54        55        56        57        58        59   
                   6.22357   6.25529   6.74240   6.77348   6.84069   7.00349
                   0.00000   0.00000   0.00000   0.00000   0.00000   0.00000
                  --------  --------  --------  --------  --------  --------
 0 N  s               0.0       0.0       0.0       0.0       4.8       4.8
 0 N  pz              0.1       0.0       3.9       0.0       0.0       0.0
 0 N  px              0.0       0.0       0.0       0.0       4.5       3.4
 0 N  py              0.0       0.1       0.0       3.9       0.0       0.0
 0 N  dz2             0.0       0.0       0.0       0.0       4.9       0.7
 0 N  dxz             2.2       0.0       9.4       0.0       0.0       0.0
 0 N  dx2y2           0.0       0.0       0.0       0.0      15.3       2.0
 0 N  dxy             0.0       2.2       0.0       9.5       0.0       0.0
 0 N  f0              3.4       0.0       3.8       0.0       0.0       0.0
 0 N  f+1             0.0       0.0       0.0       0.0       1.8       1.6
 0 N  f-1             0.0       0.6       0.0       0.6       0.0       0.0
 0 N  f+2             5.8       0.0       6.5       0.0       0.0       0.0
 0 N  f+3             0.0       0.0       0.0       0.0       3.3       2.7
 0 N  f-3             0.0       8.6       0.0       9.8       0.0       0.0
 1 O  s               0.0       0.0       0.0       0.0       8.7       4.0
 1 O  pz              0.7       0.0       4.4       0.0       0.0       0.0
 1 O  px              0.0       0.0       0.0       0.0       7.4       5.8
 1 O  py              0.0       0.7       0.0       4.4       0.0       0.0
 1 O  dz2             0.0       0.0       0.0       0.0       7.2      12.1
 1 O  dxz            83.5       0.0      18.8       0.0       0.0       0.0
 1 O  dx2y2           0.0       0.0       0.0       0.0      23.6      39.0
 1 O  dxy             0.0      83.6       0.0      18.6       0.0       0.0
 1 O  f0              1.6       0.0      19.7       0.0       0.0       0.0
 1 O  f+1             0.0       0.0       0.0       0.0       6.7       8.8
 1 O  f-1             0.0       0.2       0.0       3.2       0.0       0.0
 1 O  f+2             2.8       0.0      33.4       0.0       0.0       0.0
 1 O  f+3             0.0       0.0       0.0       0.0      11.7      15.1
 1 O  f-3             0.0       3.9       0.0      49.9       0.0       0.0

                     60        61   
                  31.22144  43.13263
                   0.00000   0.00000
                  --------  --------
 0 N  s              98.7       0.1
 0 N  px              0.3       0.0
 1 O  s               0.4      99.9
 1 O  px              0.4       0.0


                      *****************************
                      * MAYER POPULATION ANALYSIS *
                      *****************************

  NA   - Mulliken gross atomic population
  ZA   - Total nuclear charge
  QA   - Mulliken gross atomic charge
  VA   - Mayer's total valence
  BVA  - Mayer's bonded valence
  FA   - Mayer's free valence

  ATOM       NA         ZA         QA         VA         BVA        FA
  0 N      6.9708     7.0000     0.0292     2.6048     2.1392     0.4656
  1 O      8.0292     8.0000    -0.0292     2.2555     2.1392     0.1163

  Mayer bond orders larger than 0.100000
B(  0-N ,  1-O ) :   2.1392 

-------
TIMINGS
-------

Total SCF time: 0 days 0 hours 0 min 0 sec 

Total time                  ....       0.501 sec
Sum of individual times     ....       0.348 sec  ( 69.5%)

Fock matrix formation       ....       0.154 sec  ( 30.8%)
  Split-RI-J                ....       0.023 sec  ( 15.1% of F)
  XC integration            ....       0.100 sec  ( 64.6% of F)
    Basis function eval.    ....       0.019 sec  ( 18.9% of XC)
    Density eval.           ....       0.015 sec  ( 15.1% of XC)
    XC-Functional eval.     ....       0.013 sec  ( 13.5% of XC)
    XC-Potential eval.      ....       0.025 sec  ( 25.2% of XC)
Diagonalization             ....       0.006 sec  (  1.2%)
Density matrix formation    ....       0.001 sec  (  0.1%)
Population analysis         ....       0.119 sec  ( 23.7%)
Initial guess               ....       0.008 sec  (  1.6%)
Orbital Transformation      ....       0.000 sec  (  0.0%)
Orbital Orthonormalization  ....       0.001 sec  (  0.2%)
DIIS solution               ....       0.001 sec  (  0.3%)
Grid generation             ....       0.059 sec  ( 11.9%)

Maximum memory used throughout the entire SCF-calculation: 7.0 MB

-------------------------   --------------------
FINAL SINGLE POINT ENERGY      -129.816189356888
-------------------------   --------------------

                                *** OPTIMIZATION RUN DONE ***

                            ***************************************
                            *     ORCA property calculations      *
                            ***************************************

                                    ---------------------
                                    Active property flags
                                    ---------------------
   (+) Dipole Moment


------------------------------------------------------------------------------
                       ORCA ELECTRIC PROPERTIES CALCULATION
------------------------------------------------------------------------------

Dipole Moment Calculation                       ... on
Quadrupole Moment Calculation                   ... off
Polarizability Calculation                      ... off
GBWName                                         ... molecule.gbw
Electron density                                ... molecule.scfp
SHARK General Contraction Test:  Segmented basis detected
   -> Pre-screening matrix found on disk - Trying to read with NShells=22
   -> Passing Pre-screening matrix on to SHARK ...ok
   -> Leaving CheckPreScreeningMatrix
----------------------
SHARK INTEGRAL PACKAGE
----------------------

Number of atoms                             ...      2
Number of basis functions                   ...     62
Number of shells                            ...     22
Maximum angular momentum                    ...      3
Integral batch strategy                     ... SHARK/LIBINT Hybrid
RI-J (if used) integral strategy            ... SPLIT-RIJ (Revised 2003 algorithm where possible)
Printlevel                                  ...      2
Contraction scheme used                     ... SEGMENTED contraction
Coulomb Range Separation                    ... NOT USED
Exchange Range Separation                   ... NOT USED
Finite Nucleus Model                        ... NOT USED
Auxiliary Coulomb fitting basis             ... AVAILABLE
   # of basis functions in Aux-J            ...     98
   # of shells in Aux-J                     ...     30
   Maximum angular momentum in Aux-J        ...      4
Auxiliary J/K fitting basis                 ... NOT available
Auxiliary Correlation fitting basis         ... NOT available
Auxiliary 'external' fitting basis          ... NOT available
Integral threshold                          ...     2.500000e-11
Primitive cut-off                           ...     2.500000e-12
Primitive pair pre-selection threshold      ...     2.500000e-12

The origin for moment calculation is the CENTER OF MASS  = ( 1.962336,  0.000000  0.000000)

-------------
DIPOLE MOMENT
-------------
                                X             Y             Z
Electronic contribution:      0.07615       0.00000      -0.00000
Nuclear contribution   :      0.00459       0.00000       0.00000
                        -----------------------------------------
Total Dipole Moment    :      0.08074       0.00000      -0.00000
                        -----------------------------------------
Magnitude (a.u.)       :      0.08074
Magnitude (Debye)      :      0.20524



--------------------
Rotational spectrum 
--------------------
 
Rotational constants in cm-1:     0.000000     1.684524     1.684524 
Rotational constants in MHz :     0.000000 50500.773920 50500.773920 

 Dipole components along the rotational axes: 
x,y,z [a.u.] :     0.080745     0.000000    -0.000000 
x,y,z [Debye]:     0.205237     0.000000    -0.000000 

 

Timings for individual modules:

Sum of individual times         ...       11.341 sec (=   0.189 min)
GTO integral calculation        ...        4.088 sec (=   0.068 min)  36.0 %
SCF iterations                  ...        5.282 sec (=   0.088 min)  46.6 %
SCF Gradient evaluation         ...        1.813 sec (=   0.030 min)  16.0 %
Geometry relaxation             ...        0.158 sec (=   0.003 min)   1.4 %
                             ****ORCA TERMINATED NORMALLY****
TOTAL RUN TIME: 0 days 0 hours 0 minutes 13 seconds 61 msec
