 vasp.5.4.4.18Apr17-6-g9f103f2a35 (build Apr 23 2020 11:10:06) complex          
  
 executed on             LinuxIFC date 2023.06.09  18:03:41
 running on    2 total cores
 distrk:  each k-point on    2 cores,    1 groups
 distr:  one band on NCORES_PER_BAND=   1 cores,    2 groups


--------------------------------------------------------------------------------------------------------


 INCAR:
 POTCAR:    US C                                  
 POTCAR:    US C                                  
   VRHFIN =C: s2p2                                                              
   LEXCH  = 91                                                                  
   EATOM  =   146.0548 eV,   10.7347 Ry                                         
   TITEL  = US C                                                                
   LULTRA =        T    use ultrasoft PP ?                                      
   IUNSCR =        0    unscreen: 0-lin 1-nonlin 2-no                           
   RPACOR =     .000    partial core radius                                     
   POMASS =   12.011; ZVAL   =    4.000    mass and valenz                      
   RCORE  =    1.810    outmost cutoff radius                                   
   RWIGS  =    1.630; RWIGS  =     .863    wigner-seitz radius (au A)           
   ENMAX  =  286.744; ENMIN  =  215.058 eV                                      
   EAUG   =  550.000                                                            
                                                                                
   ICORE  =        2    local potential                                         
   LCOR   =        T    correct aug charges                                     
   RMAX   =    2.723    core radius for proj-oper                               
   QCUT   =   -4.591; QGAM   =    9.182    optimization parameters              
                                                                                
   Description                                                                  
     l     E      TYP  RCUT    TYP  RCUT                                        
     0   .000     15  1.320    23  1.630                                        
     0   .000     15  1.320    23  1.630                                        
     1   .000     15  1.320    23  1.810                                        
     1   .000     15  1.320    23  1.810                                        
     2   .000      7  1.810     7  1.810                                        
  local pseudopotential read in
  atomic valenz-charges read in
  non local Contribution for L=           0  read in
    real space projection operators read in
  non local Contribution for L=           0  read in
    real space projection operators read in
  non local Contribution for L=           1  read in
    real space projection operators read in
  non local Contribution for L=           1  read in
    real space projection operators read in
    augmentation charges read in
 
   number of l-projection  operators is LMAX  =           4
   number of lm-projection operators is LMMAX =           8
 

 ----------------------------------------------------------------------------- 
|                                                                             |
|  ADVICE TO THIS USER RUNNING 'VASP/VAMP'   (HEAR YOUR MASTER'S VOICE ...):  |
|                                                                             |
|      You have a (more or less) 'small supercell' and for smaller cells      |
|      it is recommended  to use the reciprocal-space projection scheme!      |
|      The real space optimization is not  efficient for small cells and it   |
|      is also less accurate ...                                              |
|      Therefore set LREAL=.FALSE. in the  INCAR file                         |
|                                                                             |
 ----------------------------------------------------------------------------- 

 Optimization of the real space projectors (new method)

 maximal supplied QI-value         = 20.79
 optimisation between [QCUT,QGAM] = [ 10.19, 20.37] = [ 29.05,116.21] Ry 
 Optimized for a Real-space Cutoff    1.30 Angstroem

   l    n(q)    QCUT    max X(q) W(low)/X(q) W(high)/X(q)  e(spline) 
   0      8    10.186     3.198    0.26E-03    0.27E-03    0.10E-06
   0      8    10.186     4.320    0.35E-03    0.33E-03    0.15E-06
   1      7    10.186     4.119    0.10E-03    0.23E-03    0.12E-06
   1      7    10.186     0.834    0.97E-04    0.29E-03    0.16E-06
  US C                                  :
 energy of atom  1       EATOM= -146.0548
 kinetic energy error for atom=    0.0047 (will be added to EATOM!!)
 
 
 POSCAR: graphene                                
  positions in direct lattice
  velocities in cartesian coordinates
 exchange correlation table for  LEXCH =        7
   RHO(1)=    0.500       N(1)  =     2000
   RHO(2)=  100.500       N(2)  =     4000
 


--------------------------------------------------------------------------------------------------------


 ion  position               nearest neighbor table
   1  0.000  0.000  0.000-   2 1.42   2 1.42   2 1.42
   2  0.333  0.667  0.020-   1 1.42   1 1.42   1 1.42
 
  LATTYP: Found a hexagonal cell.
 ALAT       =     2.4410462393
 C/A-ratio  =     4.0966040868
  
  Lattice vectors:
  
 A1 = (   2.4410462393,   0.0000000000,   0.0000000000)
 A2 = (  -1.2205231197,   2.1140080551,   0.0000000000)
 A3 = (   0.0000000000,   0.0000000000,  10.0000000000)


Analysis of symmetry for initial positions (statically):
=====================================================================
 Subroutine PRICEL returns:
 Original cell was already a primitive cell.
 

 Routine SETGRP: Setting up the symmetry group for a 
 hexagonal supercell.


 Subroutine GETGRP returns: Found 12 space group operations
 (whereof  6 operations were pure point group operations)
 out of a pool of 24 trial point group operations.


The static configuration has the point symmetry C_3v.
 The point group associated with its full space group is D_3d.


Analysis of symmetry for dynamics (positions and initial velocities):
=====================================================================
 Subroutine PRICEL returns:
 Original cell was already a primitive cell.
 

 Routine SETGRP: Setting up the symmetry group for a 
 hexagonal supercell.


 Subroutine GETGRP returns: Found 12 space group operations
 (whereof  6 operations were pure point group operations)
 out of a pool of 24 trial point group operations.


The dynamic configuration has the point symmetry C_3v.
 The point group associated with its full space group is D_3d.


Analysis of constrained symmetry for selective dynamics:
=====================================================================
 Subroutine PRICEL returns:
 Original cell was already a primitive cell.
 

 Routine SETGRP: Setting up the symmetry group for a 
 hexagonal supercell.


 Subroutine GETGRP returns: Found  6 space group operations
 (whereof  6 operations were pure point group operations)
 out of a pool of 24 trial point group operations.


The constrained configuration has the point symmetry C_3v.


 Subroutine INISYM returns: Found  6 space group operations
 (whereof  6 operations are pure point group operations),
 and found     1 'primitive' translations

 
 
 KPOINTS: K-Points                                

Automatic generation of k-mesh.
Space group operators:
 irot       det(A)        alpha          n_x          n_y          n_z        tau_x        tau_y        tau_z
    1     1.000000     0.000000     1.000000     0.000000     0.000000     0.000000     0.000000     0.000000
    2     1.000000   120.000000     0.000000     0.000000    -1.000000     0.000000     0.000000     0.000000
    3     1.000000   120.000000     0.000000     0.000000     1.000000     0.000000     0.000000     0.000000
    4    -1.000000   180.000000     1.000000     0.000000     0.000000     0.000000     0.000000     0.000000
    5    -1.000000   180.000000     0.500000    -0.866025     0.000000     0.000000     0.000000     0.000000
    6    -1.000000   180.000000    -0.500000    -0.866025     0.000000     0.000000     0.000000     0.000000
 
 Subroutine IBZKPT returns following result:
 ===========================================
 
 Found     12 irreducible k-points:
 
 Following reciprocal coordinates:
            Coordinates               Weight
  0.000000  0.000000  0.000000      1.000000
  0.111111 -0.000000  0.000000      6.000000
  0.222222 -0.000000  0.000000      6.000000
  0.333333  0.000000  0.000000      6.000000
  0.444444 -0.000000  0.000000      6.000000
  0.111111  0.111111  0.000000      6.000000
  0.222222  0.111111  0.000000     12.000000
  0.333333  0.111111  0.000000     12.000000
  0.444444  0.111111  0.000000      6.000000
  0.222222  0.222222  0.000000      6.000000
  0.333333  0.222222  0.000000     12.000000
  0.333333  0.333333  0.000000      2.000000
 
 Following cartesian coordinates:
            Coordinates               Weight
  0.000000  0.000000  0.000000      1.000000
  0.045518  0.026280  0.000000      6.000000
  0.091036  0.052559  0.000000      6.000000
  0.136553  0.078839  0.000000      6.000000
  0.182071  0.105119  0.000000      6.000000
  0.045518  0.078839  0.000000      6.000000
  0.091036  0.105119  0.000000     12.000000
  0.136553  0.131399  0.000000     12.000000
  0.182071  0.157678  0.000000      6.000000
  0.091036  0.157678  0.000000      6.000000
  0.136553  0.183958  0.000000     12.000000
  0.136553  0.236518  0.000000      2.000000
 


--------------------------------------------------------------------------------------------------------




 Dimension of arrays:
   k-points           NKPTS =     12   k-points in BZ     NKDIM =     12   number of bands    NBANDS=      8
   number of dos      NEDOS =    301   number of ions     NIONS =      2
   non local maximal  LDIM  =      4   non local SUM 2l+1 LMDIM =      8
   total plane-waves  NPLWV =   7200
   max r-space proj   IRMAX =   1337   max aug-charges    IRDMAX=   4577
   dimension x,y,z NGX =    12 NGY =   12 NGZ =   50
   dimension x,y,z NGXF=    24 NGYF=   24 NGZF=  100
   support grid    NGXF=    24 NGYF=   24 NGZF=  100
   ions per type =               2
   NGX,Y,Z   is equivalent  to a cutoff of   8.17,  8.17,  8.31 a.u.
   NGXF,Y,Z  is equivalent  to a cutoff of  16.35, 16.35, 16.62 a.u.

 SYSTEM =  unknown system                          
 POSCAR =  graphene                                

 Startparameter for this run:
   NWRITE =      2    write-flag & timer
   PREC   = normal    normal or accurate (medium, high low for compatibility)
   ISTART =      0    job   : 0-new  1-cont  2-samecut
   ICHARG =      2    charge: 1-file 2-atom 10-const
   ISPIN  =      1    spin polarized calculation?
   LNONCOLLINEAR =      F non collinear calculations
   LSORBIT =      F    spin-orbit coupling
   INIWAV =      1    electr: 0-lowe 1-rand  2-diag
   LASPH  =      F    aspherical Exc in radial PAW
   METAGGA=      F    non-selfconsistent MetaGGA calc.

 Electronic Relaxation 1
   ENCUT  =  400.0 eV  29.40 Ry    5.42 a.u.   3.98  3.98 16.31*2*pi/ulx,y,z
   ENINI  =  400.0     initial cutoff
   ENAUG  =  550.0 eV  augmentation charge cutoff
   NELM   =     60;   NELMIN=  2; NELMDL=  0     # of ELM steps 
   EDIFF  = 0.1E-03   stopping-criterion for ELM
   LREAL  =      T    real-space projection
   NLSPLINE    = F    spline interpolate recip. space projectors
   LCOMPAT=      F    compatible to vasp.4.4
   GGA_COMPAT  = T    GGA compatible to vasp.4.4-vasp.4.6
   LMAXPAW     = -100 max onsite density
   LMAXMIX     =    2 max onsite mixed and CHGCAR
   VOSKOWN=      0    Vosko Wilk Nusair interpolation
   ROPT   =   -0.00050
 Ionic relaxation
   EDIFFG = -.2E-01   stopping-criterion for IOM
   NSW    =    100    number of steps for IOM
   NBLOCK =      1;   KBLOCK =    100    inner block; outer block 
   IBRION =      2    ionic relax: 0-MD 1-quasi-New 2-CG
   NFREE  =      1    steps in history (QN), initial steepest desc. (CG)
   ISIF   =      3    stress and relaxation
   IWAVPR =     11    prediction:  0-non 1-charg 2-wave 3-comb
   ISYM   =      1    0-nonsym 1-usesym 2-fastsym
   LCORR  =      T    Harris-Foulkes like correction to forces

   POTIM  = 0.5000    time-step for ionic-motion
   TEIN   =    0.0    initial temperature
   TEBEG  =    0.0;   TEEND  =   0.0 temperature during run
   SMASS  =  -3.00    Nose mass-parameter (am)
   estimated Nose-frequenzy (Omega)   =  0.10E-29 period in steps =****** mass=  -0.136E-27a.u.
   SCALEE = 1.0000    scale energy and forces
   NPACO  =    256;   APACO  = 16.0  distance and # of slots for P.C.
   PSTRESS=    0.0 pullay stress

  Mass of Ions in am
   POMASS =  12.01
  Ionic Valenz
   ZVAL   =   4.00
  Atomic Wigner-Seitz radii
   RWIGS  =  -1.00
  virtual crystal weights 
   VCA    =   1.00
   NELECT =       8.0000    total number of electrons
   NUPDOWN=      -1.0000    fix difference up-down

 DOS related values:
   EMIN   =  10.00;   EMAX   =-10.00  energy-range for DOS
   EFERMI =   0.00
   ISMEAR =     1;   SIGMA  =   0.20  broadening in eV -4-tet -1-fermi 0-gaus

 Electronic relaxation 2 (details)
   IALGO  =     38    algorithm
   LDIAG  =      T    sub-space diagonalisation (order eigenvalues)
   LSUBROT=      F    optimize rotation matrix (better conditioning)
   TURBO    =      0    0=normal 1=particle mesh
   IRESTART =      0    0=no restart 2=restart with 2 vectors
   NREBOOT  =      0    no. of reboots
   NMIN     =      0    reboot dimension
   EREF     =   0.00    reference energy to select bands
   IMIX   =      4    mixing-type and parameters
     AMIX     =   0.80;   BMIX     =  1.00
     AMIX_MAG =   3.20;   BMIX_MAG =  1.00
     AMIN     =   0.10
     WC   =   100.;   INIMIX=   1;  MIXPRE=   1;  MAXMIX= -45

 Intra band minimization:
   WEIMIN = 0.0010     energy-eigenvalue tresh-hold
   EBREAK =  0.31E-05  absolut break condition
   DEPER  =   0.30     relativ break condition  

   TIME   =   0.40     timestep for ELM

  volume/ion in A,a.u.               =      25.80       174.12
  Fermi-wavevector in a.u.,A,eV,Ry     =   0.879449  1.661917 10.523159  0.773430
  Thomas-Fermi vector in A             =   1.999674
 
 Write flags
   LWAVE        =      F    write WAVECAR
   LDOWNSAMPLE  =      F    k-point downsampling of WAVECAR
   LCHARG       =      F    write CHGCAR
   LVTOT        =      F    write LOCPOT, total local potential
   LVHAR        =      F    write LOCPOT, Hartree potential only
   LELF         =      F    write electronic localiz. function (ELF)
   LORBIT       =      0    0 simple, 1 ext, 2 COOP (PROOUT), +10 PAW based schemes


 Dipole corrections
   LMONO  =      F    monopole corrections only (constant potential shift)
   LDIPOL =      F    correct potential (dipole corrections)
   IDIPOL =      0    1-x, 2-y, 3-z, 4-all directions 
   EPSILON=  1.0000000 bulk dielectric constant

 Exchange correlation treatment:
   GGA     =    --    GGA type
   LEXCH   =     7    internal setting for exchange type
   VOSKOWN=      0    Vosko Wilk Nusair interpolation
   LHFCALC =     F    Hartree Fock is set to
   LHFONE  =     F    Hartree Fock one center treatment
   AEXX    =    0.0000 exact exchange contribution

 Linear response parameters
   LEPSILON=     F    determine dielectric tensor
   LRPA    =     F    only Hartree local field effects (RPA)
   LNABLA  =     F    use nabla operator in PAW spheres
   LVEL    =     F    velocity operator in full k-point grid
   LINTERFAST=   F  fast interpolation
   KINTER  =     0    interpolate to denser k-point grid
   CSHIFT  =0.1000    complex shift for real part using Kramers Kronig
   OMEGAMAX=  -1.0    maximum frequency
   DEG_THRESHOLD= 0.2000000E-02 threshold for treating states as degnerate
   RTIME   =   -0.100 relaxation time in fs
  (WPLASMAI=    0.000 imaginary part of plasma frequency in eV, 0.658/RTIME)
   DFIELD  = 0.0000000 0.0000000 0.0000000 field for delta impulse in time
 
 Orbital magnetization related:
   ORBITALMAG=     F  switch on orbital magnetization
   LCHIMAG   =     F  perturbation theory with respect to B field
   DQ        =  0.001000  dq finite difference perturbation B field
   LLRAUG    =     F  two centre corrections for induced B field



--------------------------------------------------------------------------------------------------------


 conjugate gradient relaxation of ions
   using selective dynamics as specified on POSCAR
 charge density and potential will be updated during run
 non-spin polarized calculation
 Variant of blocked Davidson
 Davidson routine will perform the subspace rotation
 perform sub-space diagonalisation
    after iterative eigenvector-optimisation
 modified Broyden-mixing scheme, WC =      100.0
 initial mixing is a Kerker type mixing with AMIX =  0.8000 and BMIX =      1.0000
 Hartree-type preconditioning will be used
 using additional bands            4
 real space projection scheme for non local part
 calculate Harris-corrections to forces 
   (improved forces if not selfconsistent)
 use gradient corrections 
 use of overlap-Matrix (Vanderbilt PP)
 Methfessel and Paxton  Order N= 1 SIGMA  =   0.20


--------------------------------------------------------------------------------------------------------


  energy-cutoff  :      400.00
  volume of cell :       51.60
      direct lattice vectors                 reciprocal lattice vectors
     2.441046239  0.000000000  0.000000000     0.409660409  0.236517547  0.000000000
    -1.220523120  2.114008055  0.000000000     0.000000000  0.473035094  0.000000000
     0.000000000  0.000000000 10.000000000     0.000000000  0.000000000  0.100000000

  length of vectors
     2.441046239  2.441046239 10.000000000     0.473035094  0.473035094  0.100000000


 
 k-points in units of 2pi/SCALE and weight: K-Points                                
   0.00000000  0.00000000  0.00000000       0.012
   0.04551782  0.02627973  0.00000000       0.074
   0.09103565  0.05255945  0.00000000       0.074
   0.13655347  0.07883918  0.00000000       0.074
   0.18207129  0.10511891  0.00000000       0.074
   0.04551782  0.07883918  0.00000000       0.074
   0.09103565  0.10511891  0.00000000       0.148
   0.13655347  0.13139864  0.00000000       0.148
   0.18207129  0.15767836  0.00000000       0.074
   0.09103565  0.15767836  0.00000000       0.074
   0.13655347  0.18395809  0.00000000       0.148
   0.13655347  0.23651755  0.00000000       0.025
 
 k-points in reciprocal lattice and weights: K-Points                                
   0.00000000  0.00000000  0.00000000       0.012
   0.11111111 -0.00000000  0.00000000       0.074
   0.22222222 -0.00000000  0.00000000       0.074
   0.33333333  0.00000000  0.00000000       0.074
   0.44444444 -0.00000000  0.00000000       0.074
   0.11111111  0.11111111  0.00000000       0.074
   0.22222222  0.11111111  0.00000000       0.148
   0.33333333  0.11111111  0.00000000       0.148
   0.44444444  0.11111111  0.00000000       0.074
   0.22222222  0.22222222  0.00000000       0.074
   0.33333333  0.22222222  0.00000000       0.148
   0.33333333  0.33333333  0.00000000       0.025
 
 position of ions in fractional coordinates (direct lattice) 
   0.00000000  0.00000000  0.00000000
   0.33333333  0.66666667  0.02000000
 
 position of ions in cartesian coordinates  (Angst):
   0.00000000  0.00000000  0.00000000
  -0.00000000  1.40933870  0.20000000
 


--------------------------------------------------------------------------------------------------------


 k-point  1 :   0.0000 0.0000 0.0000  plane waves:     909
 k-point  2 :   0.1111-0.0000 0.0000  plane waves:     907
 k-point  3 :   0.2222-0.0000 0.0000  plane waves:     919
 k-point  4 :   0.3333 0.0000 0.0000  plane waves:     943
 k-point  5 :   0.4444-0.0000 0.0000  plane waves:     937
 k-point  6 :   0.1111 0.1111 0.0000  plane waves:     926
 k-point  7 :   0.2222 0.1111 0.0000  plane waves:     940
 k-point  8 :   0.3333 0.1111 0.0000  plane waves:     949
 k-point  9 :   0.4444 0.1111 0.0000  plane waves:     954
 k-point 10 :   0.2222 0.2222 0.0000  plane waves:     948
 k-point 11 :   0.3333 0.2222 0.0000  plane waves:     943
 k-point 12 :   0.3333 0.3333 0.0000  plane waves:     936

 maximum and minimum number of plane-waves per node :       954      907

 maximum number of plane-waves:       954
 maximum index in each direction: 
   IXMAX=    3   IYMAX=    3   IZMAX=   16
   IXMIN=   -4   IYMIN=   -4   IZMIN=  -16


 serial   3D FFT for wavefunctions
 parallel 3D FFT for charge:
    minimum data exchange during FFTs selected (reduces bandwidth)


 total amount of memory used by VASP MPI-rank0    33674. kBytes
=======================================================================

   base      :      30000. kBytes
   nonlr-proj:        222. kBytes
   fftplans  :       1011. kBytes
   grid      :       1691. kBytes
   one-center:          6. kBytes
   wavefun   :        744. kBytes
 
     INWAV:  cpu time    0.0000: real time    0.0004
 Broyden mixing: mesh for mixing (old mesh)
   NGX =  7   NGY =  7   NGZ = 33
  (NGX  = 24   NGY  = 24   NGZ  =100)
  gives a total of   1617 points

 initial charge density was supplied:
 charge density of overlapping atoms calculated
 number of electron       8.0000000 magnetization 
 keeping initial charge density in first step


--------------------------------------------------------------------------------------------------------


 Maximum index for non-local projection operator         1267
 Maximum index for augmentation-charges         2131 (set IRDMAX)


--------------------------------------------------------------------------------------------------------


 First call to EWALD:  gamma=   0.476
 Maximum number of real-space cells 4x 4x 1
 Maximum number of reciprocal cells 2x 2x 7

    FEWALD:  cpu time    0.0010: real time    0.0010


--------------------------------------- Iteration      1(   1)  ---------------------------------------


    POTLOK:  cpu time    0.0119: real time    0.0148
    SETDIJ:  cpu time    0.0004: real time    0.0004
     EDDAV:  cpu time    0.0315: real time    0.0315
       DOS:  cpu time    0.0003: real time    0.0003
    --------------------------------------------
      LOOP:  cpu time    0.0440: real time    0.0470

 eigenvalue-minimisations  :   200
 total energy-change (2. order) : 0.2151491E+02  (-0.3197038E+03)
 number of electron       8.0000000 magnetization 
 augmentation part        8.0000000 magnetization 

 Free energy of the ion-electron system (eV)
  ---------------------------------------------------
  alpha Z        PSCENC =         8.05150398
  Ewald energy   TEWEN  =       385.70992662
  -Hartree energ DENC   =      -617.01512311
  -exchange      EXHF   =         0.00000000
  -V(xc)+E(xc)   XCENC  =        27.53494903
  PAW double counting   =         0.00000000        0.00000000
  entropy T*S    EENTRO =         0.00050316
  eigenvalues    EBANDS =       -74.86708752
  atomic energy  EATOM  =       292.10024138
  Solvation  Ediel_sol  =         0.00000000
  ---------------------------------------------------
  free energy    TOTEN  =        21.51491355 eV

  energy without entropy =       21.51441039  energy(sigma->0) =       21.51474583


--------------------------------------------------------------------------------------------------------




--------------------------------------- Iteration      1(   2)  ---------------------------------------


     EDDAV:  cpu time    0.0381: real time    0.0386
       DOS:  cpu time    0.0002: real time    0.0002
    --------------------------------------------
      LOOP:  cpu time    0.0383: real time    0.0388

 eigenvalue-minimisations  :   256
 total energy-change (2. order) :-0.4027446E+02  (-0.3737294E+02)
 number of electron       8.0000000 magnetization 
 augmentation part        8.0000000 magnetization 

 Free energy of the ion-electron system (eV)
  ---------------------------------------------------
  alpha Z        PSCENC =         8.05150398
  Ewald energy   TEWEN  =       385.70992662
  -Hartree energ DENC   =      -617.01512311
  -exchange      EXHF   =         0.00000000
  -V(xc)+E(xc)   XCENC  =        27.53494903
  PAW double counting   =         0.00000000        0.00000000
  entropy T*S    EENTRO =        -0.00245170
  eigenvalues    EBANDS =      -115.13859549
  atomic energy  EATOM  =       292.10024138
  Solvation  Ediel_sol  =         0.00000000
  ---------------------------------------------------
  free energy    TOTEN  =       -18.75954928 eV

  energy without entropy =      -18.75709758  energy(sigma->0) =      -18.75873205


--------------------------------------------------------------------------------------------------------




--------------------------------------- Iteration      1(   3)  ---------------------------------------


     EDDAV:  cpu time    0.0401: real time    0.0406
       DOS:  cpu time    0.0002: real time    0.0002
    --------------------------------------------
      LOOP:  cpu time    0.0403: real time    0.0409

 eigenvalue-minimisations  :   256
 total energy-change (2. order) :-0.6708685E+00  (-0.6705342E+00)
 number of electron       8.0000000 magnetization 
 augmentation part        8.0000000 magnetization 

 Free energy of the ion-electron system (eV)
  ---------------------------------------------------
  alpha Z        PSCENC =         8.05150398
  Ewald energy   TEWEN  =       385.70992662
  -Hartree energ DENC   =      -617.01512311
  -exchange      EXHF   =         0.00000000
  -V(xc)+E(xc)   XCENC  =        27.53494903
  PAW double counting   =         0.00000000        0.00000000
  entropy T*S    EENTRO =        -0.00278612
  eigenvalues    EBANDS =      -115.80912953
  atomic energy  EATOM  =       292.10024138
  Solvation  Ediel_sol  =         0.00000000
  ---------------------------------------------------
  free energy    TOTEN  =       -19.43041774 eV

  energy without entropy =      -19.42763162  energy(sigma->0) =      -19.42948903


--------------------------------------------------------------------------------------------------------




--------------------------------------- Iteration      1(   4)  ---------------------------------------


     EDDAV:  cpu time    0.0490: real time    0.0496
       DOS:  cpu time    0.0002: real time    0.0002
    --------------------------------------------
      LOOP:  cpu time    0.0493: real time    0.0498

 eigenvalue-minimisations  :   336
 total energy-change (2. order) :-0.4607937E-02  (-0.4607937E-02)
 number of electron       8.0000000 magnetization 
 augmentation part        8.0000000 magnetization 

 Free energy of the ion-electron system (eV)
  ---------------------------------------------------
  alpha Z        PSCENC =         8.05150398
  Ewald energy   TEWEN  =       385.70992662
  -Hartree energ DENC   =      -617.01512311
  -exchange      EXHF   =         0.00000000
  -V(xc)+E(xc)   XCENC  =        27.53494903
  PAW double counting   =         0.00000000        0.00000000
  entropy T*S    EENTRO =        -0.00278612
  eigenvalues    EBANDS =      -115.81373747
  atomic energy  EATOM  =       292.10024138
  Solvation  Ediel_sol  =         0.00000000
  ---------------------------------------------------
  free energy    TOTEN  =       -19.43502568 eV

  energy without entropy =      -19.43223956  energy(sigma->0) =      -19.43409697


--------------------------------------------------------------------------------------------------------




--------------------------------------- Iteration      1(   5)  ---------------------------------------


     EDDAV:  cpu time    0.0386: real time    0.0391
       DOS:  cpu time    0.0003: real time    0.0003
    CHARGE:  cpu time    0.0065: real time    0.0065
    MIXING:  cpu time    0.0004: real time    0.0004
    --------------------------------------------
      LOOP:  cpu time    0.0458: real time    0.0462

 eigenvalue-minimisations  :   256
 total energy-change (2. order) :-0.5882757E-06  (-0.5881254E-06)
 number of electron       7.9999995 magnetization 
 augmentation part        0.2858680 magnetization 

 Broyden mixing:
  rms(total) = 0.55530E+00    rms(broyden)= 0.55196E+00
  rms(prec ) = 0.73562E+00
  weight for this iteration     100.00

 Free energy of the ion-electron system (eV)
  ---------------------------------------------------
  alpha Z        PSCENC =         8.05150398
  Ewald energy   TEWEN  =       385.70992662
  -Hartree energ DENC   =      -617.01512311
  -exchange      EXHF   =         0.00000000
  -V(xc)+E(xc)   XCENC  =        27.53494903
  PAW double counting   =         0.00000000        0.00000000
  entropy T*S    EENTRO =        -0.00278612
  eigenvalues    EBANDS =      -115.81373806
  atomic energy  EATOM  =       292.10024138
  Solvation  Ediel_sol  =         0.00000000
  ---------------------------------------------------
  free energy    TOTEN  =       -19.43502627 eV

  energy without entropy =      -19.43224014  energy(sigma->0) =      -19.43409756


--------------------------------------------------------------------------------------------------------




--------------------------------------- Iteration      1(   6)  ---------------------------------------


    POTLOK:  cpu time    0.0091: real time    0.0096
    SETDIJ:  cpu time    0.0004: real time    0.0004
     EDDAV:  cpu time    0.0482: real time    0.0484
       DOS:  cpu time    0.0002: real time    0.0002
    CHARGE:  cpu time    0.0056: real time    0.0057
    MIXING:  cpu time    0.0005: real time    0.0005
    --------------------------------------------
      LOOP:  cpu time    0.0640: real time    0.0646

 eigenvalue-minimisations  :   328
 total energy-change (2. order) : 0.1242721E+01  (-0.3376696E+00)
 number of electron       7.9999996 magnetization 
 augmentation part        0.2410747 magnetization 

 Broyden mixing:
  rms(total) = 0.81664E-01    rms(broyden)= 0.81086E-01
  rms(prec ) = 0.11481E+00
  weight for this iteration     100.00

 eigenvalues of (default mixing * dielectric matrix)
  average eigenvalue GAMMA=   1.0351
  1.0351

 Free energy of the ion-electron system (eV)
  ---------------------------------------------------
  alpha Z        PSCENC =         8.05150398
  Ewald energy   TEWEN  =       385.70992662
  -Hartree energ DENC   =      -639.11531360
  -exchange      EXHF   =         0.00000000
  -V(xc)+E(xc)   XCENC  =        28.61360379
  PAW double counting   =         0.00000000        0.00000000
  entropy T*S    EENTRO =        -0.00278612
  eigenvalues    EBANDS =       -93.54948143
  atomic energy  EATOM  =       292.10024138
  Solvation  Ediel_sol  =         0.00000000
  ---------------------------------------------------
  free energy    TOTEN  =       -18.19230537 eV

  energy without entropy =      -18.18951925  energy(sigma->0) =      -18.19137666


--------------------------------------------------------------------------------------------------------




--------------------------------------- Iteration      1(   7)  ---------------------------------------


    POTLOK:  cpu time    0.0090: real time    0.0093
    SETDIJ:  cpu time    0.0004: real time    0.0004
     EDDAV:  cpu time    0.0428: real time    0.0429
       DOS:  cpu time    0.0002: real time    0.0002
    CHARGE:  cpu time    0.0059: real time    0.0059
    MIXING:  cpu time    0.0005: real time    0.0005
    --------------------------------------------
      LOOP:  cpu time    0.0587: real time    0.0592

 eigenvalue-minimisations  :   272
 total energy-change (2. order) : 0.1497311E-01  (-0.2509752E-02)
 number of electron       7.9999996 magnetization 
 augmentation part        0.2392801 magnetization 

 Broyden mixing:
  rms(total) = 0.21517E-01    rms(broyden)= 0.21323E-01
  rms(prec ) = 0.50426E-01
  weight for this iteration     100.00

 eigenvalues of (default mixing * dielectric matrix)
  average eigenvalue GAMMA=   1.1683
  1.0536  1.2831

 Free energy of the ion-electron system (eV)
  ---------------------------------------------------
  alpha Z        PSCENC =         8.05150398
  Ewald energy   TEWEN  =       385.70992662
  -Hartree energ DENC   =      -642.86637787
  -exchange      EXHF   =         0.00000000
  -V(xc)+E(xc)   XCENC  =        28.70984732
  PAW double counting   =         0.00000000        0.00000000
  entropy T*S    EENTRO =        -0.00278612
  eigenvalues    EBANDS =       -89.87968758
  atomic energy  EATOM  =       292.10024138
  Solvation  Ediel_sol  =         0.00000000
  ---------------------------------------------------
  free energy    TOTEN  =       -18.17733226 eV

  energy without entropy =      -18.17454614  energy(sigma->0) =      -18.17640355


--------------------------------------------------------------------------------------------------------




--------------------------------------- Iteration      1(   8)  ---------------------------------------


    POTLOK:  cpu time    0.0099: real time    0.0103
    SETDIJ:  cpu time    0.0004: real time    0.0004
     EDDAV:  cpu time    0.0435: real time    0.0436
       DOS:  cpu time    0.0002: real time    0.0002
    CHARGE:  cpu time    0.0060: real time    0.0060
    MIXING:  cpu time    0.0005: real time    0.0005
    --------------------------------------------
      LOOP:  cpu time    0.0606: real time    0.0611

 eigenvalue-minimisations  :   280
 total energy-change (2. order) : 0.9200227E-02  (-0.6749056E-03)
 number of electron       7.9999996 magnetization 
 augmentation part        0.2385855 magnetization 

 Broyden mixing:
  rms(total) = 0.68846E-02    rms(broyden)= 0.68000E-02
  rms(prec ) = 0.27374E-01
  weight for this iteration     100.00

 eigenvalues of (default mixing * dielectric matrix)
  average eigenvalue GAMMA=   1.2974
  1.0149  1.2358  1.6414

 Free energy of the ion-electron system (eV)
  ---------------------------------------------------
  alpha Z        PSCENC =         8.05150398
  Ewald energy   TEWEN  =       385.70992662
  -Hartree energ DENC   =      -645.49531165
  -exchange      EXHF   =         0.00000000
  -V(xc)+E(xc)   XCENC  =        28.75813222
  PAW double counting   =         0.00000000        0.00000000
  entropy T*S    EENTRO =        -0.00278610
  eigenvalues    EBANDS =       -87.28983848
  atomic energy  EATOM  =       292.10024138
  Solvation  Ediel_sol  =         0.00000000
  ---------------------------------------------------
  free energy    TOTEN  =       -18.16813203 eV

  energy without entropy =      -18.16534593  energy(sigma->0) =      -18.16720333


--------------------------------------------------------------------------------------------------------




--------------------------------------- Iteration      1(   9)  ---------------------------------------


    POTLOK:  cpu time    0.0100: real time    0.0104
    SETDIJ:  cpu time    0.0004: real time    0.0004
     EDDAV:  cpu time    0.0383: real time    0.0384
       DOS:  cpu time    0.0002: real time    0.0002
    CHARGE:  cpu time    0.0059: real time    0.0059
    MIXING:  cpu time    0.0005: real time    0.0005
    --------------------------------------------
      LOOP:  cpu time    0.0553: real time    0.0558

 eigenvalue-minimisations  :   240
 total energy-change (2. order) : 0.3651685E-02  (-0.3738291E-03)
 number of electron       7.9999996 magnetization 
 augmentation part        0.2380157 magnetization 

 Broyden mixing:
  rms(total) = 0.31400E-02    rms(broyden)= 0.30872E-02
  rms(prec ) = 0.95565E-02
  weight for this iteration     100.00

 eigenvalues of (default mixing * dielectric matrix)
  average eigenvalue GAMMA=   1.4738
  2.3684  1.0206  1.1517  1.3545

 Free energy of the ion-electron system (eV)
  ---------------------------------------------------
  alpha Z        PSCENC =         8.05150398
  Ewald energy   TEWEN  =       385.70992662
  -Hartree energ DENC   =      -648.00357170
  -exchange      EXHF   =         0.00000000
  -V(xc)+E(xc)   XCENC  =        28.78637908
  PAW double counting   =         0.00000000        0.00000000
  entropy T*S    EENTRO =        -0.00278568
  eigenvalues    EBANDS =       -84.80617403
  atomic energy  EATOM  =       292.10024138
  Solvation  Ediel_sol  =         0.00000000
  ---------------------------------------------------
  free energy    TOTEN  =       -18.16448035 eV

  energy without entropy =      -18.16169466  energy(sigma->0) =      -18.16355178


--------------------------------------------------------------------------------------------------------




--------------------------------------- Iteration      1(  10)  ---------------------------------------


    POTLOK:  cpu time    0.0093: real time    0.0096
    SETDIJ:  cpu time    0.0004: real time    0.0004
     EDDAV:  cpu time    0.0375: real time    0.0376
       DOS:  cpu time    0.0002: real time    0.0002
    CHARGE:  cpu time    0.0059: real time    0.0059
    MIXING:  cpu time    0.0005: real time    0.0005
    --------------------------------------------
      LOOP:  cpu time    0.0537: real time    0.0542

 eigenvalue-minimisations  :   240
 total energy-change (2. order) :-0.1268197E-02  (-0.9350996E-04)
 number of electron       7.9999996 magnetization 
 augmentation part        0.2378317 magnetization 

 Broyden mixing:
  rms(total) = 0.36773E-02    rms(broyden)= 0.36586E-02
  rms(prec ) = 0.52767E-02
  weight for this iteration     100.00

 eigenvalues of (default mixing * dielectric matrix)
  average eigenvalue GAMMA=   1.4144
  2.9675  1.4330  1.1984  1.0209  0.4519

 Free energy of the ion-electron system (eV)
  ---------------------------------------------------
  alpha Z        PSCENC =         8.05150398
  Ewald energy   TEWEN  =       385.70992662
  -Hartree energ DENC   =      -648.83809394
  -exchange      EXHF   =         0.00000000
  -V(xc)+E(xc)   XCENC  =        28.78995097
  PAW double counting   =         0.00000000        0.00000000
  entropy T*S    EENTRO =        -0.00278145
  eigenvalues    EBANDS =       -83.97649611
  atomic energy  EATOM  =       292.10024138
  Solvation  Ediel_sol  =         0.00000000
  ---------------------------------------------------
  free energy    TOTEN  =       -18.16574854 eV

  energy without entropy =      -18.16296709  energy(sigma->0) =      -18.16482139


--------------------------------------------------------------------------------------------------------




--------------------------------------- Iteration      1(  11)  ---------------------------------------


    POTLOK:  cpu time    0.0095: real time    0.0098
    SETDIJ:  cpu time    0.0004: real time    0.0004
     EDDAV:  cpu time    0.0355: real time    0.0356
       DOS:  cpu time    0.0002: real time    0.0002
    CHARGE:  cpu time    0.0060: real time    0.0060
    MIXING:  cpu time    0.0005: real time    0.0005
    --------------------------------------------
      LOOP:  cpu time    0.0521: real time    0.0526

 eigenvalue-minimisations  :   216
 total energy-change (2. order) :-0.4339634E-03  (-0.3324532E-04)
 number of electron       7.9999996 magnetization 
 augmentation part        0.2378225 magnetization 

 Broyden mixing:
  rms(total) = 0.10062E-02    rms(broyden)= 0.97305E-03
  rms(prec ) = 0.15740E-02
  weight for this iteration     100.00

 eigenvalues of (default mixing * dielectric matrix)
  average eigenvalue GAMMA=   1.6074
  4.0622  1.6993  1.3280  1.1337  1.0134  0.4075

 Free energy of the ion-electron system (eV)
  ---------------------------------------------------
  alpha Z        PSCENC =         8.05150398
  Ewald energy   TEWEN  =       385.70992662
  -Hartree energ DENC   =      -648.92248900
  -exchange      EXHF   =         0.00000000
  -V(xc)+E(xc)   XCENC  =        28.79010979
  PAW double counting   =         0.00000000        0.00000000
  entropy T*S    EENTRO =        -0.00278584
  eigenvalues    EBANDS =       -83.89268944
  atomic energy  EATOM  =       292.10024138
  Solvation  Ediel_sol  =         0.00000000
  ---------------------------------------------------
  free energy    TOTEN  =       -18.16618251 eV

  energy without entropy =      -18.16339667  energy(sigma->0) =      -18.16525389


--------------------------------------------------------------------------------------------------------




--------------------------------------- Iteration      1(  12)  ---------------------------------------


    POTLOK:  cpu time    0.0099: real time    0.0104
    SETDIJ:  cpu time    0.0004: real time    0.0004
     EDDAV:  cpu time    0.0334: real time    0.0335
       DOS:  cpu time    0.0002: real time    0.0002
    CHARGE:  cpu time    0.0058: real time    0.0058
    MIXING:  cpu time    0.0005: real time    0.0005
    --------------------------------------------
      LOOP:  cpu time    0.0503: real time    0.0509

 eigenvalue-minimisations  :   208
 total energy-change (2. order) :-0.6164449E-03  (-0.2669275E-04)
 number of electron       7.9999996 magnetization 
 augmentation part        0.2378229 magnetization 

 Broyden mixing:
  rms(total) = 0.15979E-03    rms(broyden)= 0.15948E-03
  rms(prec ) = 0.25069E-03
  weight for this iteration     100.00

 eigenvalues of (default mixing * dielectric matrix)
  average eigenvalue GAMMA=   1.5629
  4.1010  1.8339  1.3301  1.2057  1.0174  1.0417  0.4101

 Free energy of the ion-electron system (eV)
  ---------------------------------------------------
  alpha Z        PSCENC =         8.05150398
  Ewald energy   TEWEN  =       385.70992662
  -Hartree energ DENC   =      -648.94573738
  -exchange      EXHF   =         0.00000000
  -V(xc)+E(xc)   XCENC  =        28.78971529
  PAW double counting   =         0.00000000        0.00000000
  entropy T*S    EENTRO =        -0.00278612
  eigenvalues    EBANDS =       -83.86966273
  atomic energy  EATOM  =       292.10024138
  Solvation  Ediel_sol  =         0.00000000
  ---------------------------------------------------
  free energy    TOTEN  =       -18.16679895 eV

  energy without entropy =      -18.16401283  energy(sigma->0) =      -18.16587024


--------------------------------------------------------------------------------------------------------




--------------------------------------- Iteration      1(  13)  ---------------------------------------


    POTLOK:  cpu time    0.0192: real time    0.0196
    SETDIJ:  cpu time    0.0004: real time    0.0004
     EDDAV:  cpu time    0.0352: real time    0.0353
       DOS:  cpu time    0.0002: real time    0.0002
    --------------------------------------------
      LOOP:  cpu time    0.0550: real time    0.0555

 eigenvalue-minimisations  :   216
 total energy-change (2. order) :-0.2930862E-04  (-0.1541414E-05)
 number of electron       7.9999996 magnetization 
 augmentation part        0.2378229 magnetization 

 Free energy of the ion-electron system (eV)
  ---------------------------------------------------
  alpha Z        PSCENC =         8.05150398
  Ewald energy   TEWEN  =       385.70992662
  -Hartree energ DENC   =      -648.92665405
  -exchange      EXHF   =         0.00000000
  -V(xc)+E(xc)   XCENC  =        28.78942849
  PAW double counting   =         0.00000000        0.00000000
  entropy T*S    EENTRO =        -0.00278612
  eigenvalues    EBANDS =       -83.88848856
  atomic energy  EATOM  =       292.10024138
  Solvation  Ediel_sol  =         0.00000000
  ---------------------------------------------------
  free energy    TOTEN  =       -18.16682826 eV

  energy without entropy =      -18.16404214  energy(sigma->0) =      -18.16589955


--------------------------------------------------------------------------------------------------------




 average (electrostatic) potential at core
  the test charge radii are     0.9437
  (the norm of the test charge is              1.0000)
       1 -46.1878       2 -46.1879
 
 
 
 E-fermi :  -1.4788     XC(G=0):  -4.3285     alpha+bet : -3.7104


 k-point     1 :       0.0000    0.0000    0.0000
  band No.  band energies     occupation 
      1     -21.0284      2.00000
      2      -9.1156      2.00000
      3      -4.1529      2.00000
      4      -4.1529      2.00000
      5       1.3829     -0.00000
      6       3.1032     -0.00000
      7       4.3818      0.00000
      8       7.0350      0.00000

 k-point     2 :       0.1111   -0.0000    0.0000
  band No.  band energies     occupation 
      1     -20.7306      2.00000
      2      -8.7698      2.00000
      3      -5.2924      2.00000
      4      -4.7401      2.00000
      5       1.7640     -0.00000
      6       3.5061     -0.00000
      7       4.7188      0.00000
      8       7.0883      0.00000

 k-point     3 :       0.2222   -0.0000    0.0000
  band No.  band energies     occupation 
      1     -19.8432      2.00000
      2      -8.0861      2.00000
      3      -7.5531      2.00000
      4      -5.9200      2.00000
      5       2.8253     -0.00000
      6       4.6955      0.00000
      7       5.3312      0.00000
      8       6.9113      0.00000

 k-point     4 :       0.3333    0.0000    0.0000
  band No.  band energies     occupation 
      1     -18.3866      2.00000
      2     -10.9330      2.00000
      3      -6.9590      2.00000
      4      -6.0693      2.00000
      5       2.8169     -0.00000
      6       5.4938      0.00000
      7       6.5767      0.00000
      8       6.8368      0.00000

 k-point     5 :       0.4444   -0.0000    0.0000
  band No.  band energies     occupation 
      1     -16.4358      2.00000
      2     -13.7382      2.00000
      3      -7.5322      2.00000
      4      -4.2134      2.00000
      5       0.5422     -0.00000
      6       6.3800      0.00000
      7       8.0324      0.00000
      8       9.3985      0.00000

 k-point     6 :       0.1111    0.1111    0.0000
  band No.  band energies     occupation 
      1     -20.1380      2.00000
      2      -8.1123      2.00000
      3      -6.8470      2.00000
      4      -5.9173      2.00000
      5       2.4958     -0.00000
      6       4.3066      0.00000
      7       5.2538      0.00000
      8       7.3418      0.00000

 k-point     7 :       0.2222    0.1111    0.0000
  band No.  band energies     occupation 
      1     -18.9659      2.00000
      2      -9.4314      2.00000
      3      -7.3395      2.00000
      4      -6.6838      2.00000
      5       3.3652     -0.00000
      6       5.1876      0.00000
      7       5.8974      0.00000
      8       7.7736      0.00000

 k-point     8 :       0.3333    0.1111    0.0000
  band No.  band energies     occupation 
      1     -17.2516      2.00000
      2     -12.2426      2.00000
      3      -8.2320      2.00000
      4      -4.8652      2.00000
      5       1.5742     -0.00000
      6       6.9097      0.00000
      7       7.7584      0.00000
      8       8.2132      0.00000

 k-point     9 :       0.4444    0.1111    0.0000
  band No.  band energies     occupation 
      1     -15.4572      2.00000
      2     -14.4459      2.00000
      3      -8.5365      2.00000
      4      -3.5166      2.00000
      5      -0.0279     -0.00000
      6       7.6186      0.00000
      7       9.6934      0.00000
      8      10.0345      0.00000

 k-point    10 :       0.2222    0.2222    0.0000
  band No.  band energies     occupation 
      1     -17.5334      2.00000
      2     -10.9628      2.00000
      3      -9.4084      2.00000
      4      -5.1124      2.00000
      5       2.1375     -0.00000
      6       6.5757      0.00000
      7       7.7316      0.00000
      8       9.5917      0.00000

 k-point    11 :       0.3333    0.2222    0.0000
  band No.  band energies     occupation 
      1     -15.6383      2.00000
      2     -13.1251      2.00000
      3     -10.4323      2.00000
      4      -3.2408      2.00000
      5       0.1327     -0.00000
      6       9.1189      0.00000
      7       9.3936      0.00000
      8      10.5735      0.00000

 k-point    12 :       0.3333    0.3333    0.0000
  band No.  band energies     occupation 
      1     -13.9356      2.00000
      2     -13.9356      2.00000
      3     -11.9039      2.00000
      4      -1.4788      1.00031
      5      -1.4787      0.99969
      6       8.8123      0.00000
      7      11.8004      0.00000
      8      11.8006      0.00000


--------------------------------------------------------------------------------------------------------


 soft charge-density along one line, spin component           1
         0         1         2         3         4         5         6         7         8         9
 total charge-density along one line
 
 pseudopotential strength for first ion, spin component:           1
 13.648  -8.432   0.000  -0.007  -0.000   0.000  -0.062  -0.000
 -8.432   5.930   0.000   0.001  -0.000  -0.000   0.065   0.000
  0.000   0.000 -10.651   0.000  -0.000  41.700  -0.000  -0.000
 -0.007   0.001   0.000 -10.464  -0.000  -0.000  41.541   0.000
 -0.000  -0.000  -0.000  -0.000 -10.651  -0.000   0.000  41.700
  0.000  -0.000  41.700  -0.000  -0.000  -8.535  -0.000   0.000
 -0.062   0.065  -0.000  41.541   0.000  -0.000  -9.905   0.000
 -0.000   0.000  -0.000   0.000  41.700   0.000   0.000  -8.535
 total augmentation occupancy for first ion, spin component:           1
  0.923  -0.109  -0.009  -0.030  -0.017   0.000  -0.003   0.001
 -0.109   0.019  -0.000  -0.013   0.001   0.000   0.001   0.000
 -0.009  -0.000   0.486  -0.004  -0.062  -0.021   0.000  -0.001
 -0.030  -0.013  -0.004   0.359  -0.012   0.000  -0.010   0.000
 -0.017   0.001  -0.062  -0.012   0.429  -0.001   0.000  -0.021
  0.000   0.000  -0.021   0.000  -0.001   0.001  -0.000   0.000
 -0.003   0.001   0.000  -0.010   0.000  -0.000   0.000  -0.000
  0.001   0.000  -0.001   0.000  -0.021   0.000  -0.000   0.001


------------------------ aborting loop because EDIFF is reached ----------------------------------------


    CHARGE:  cpu time    0.0059: real time    0.0059
    FORLOC:  cpu time    0.0004: real time    0.0004
    FORNL :  cpu time    0.0140: real time    0.0141
    STRESS:  cpu time    0.0419: real time    0.0420
    FORHAR:  cpu time    0.0020: real time    0.0020
    MIXING:  cpu time    0.0005: real time    0.0005
    OFIELD:  cpu time    0.0000: real time    0.0000

  FORCE on cell =-STRESS in cart. coord.  units (eV):
  Direction    XX          YY          ZZ          XY          YZ          ZX
  --------------------------------------------------------------------------------------
  Alpha Z     8.05150     8.05150     8.05150
  Ewald     653.77912   653.77912  -921.84841     0.00000    -0.00000    -0.00000
  Hartree   637.77952   637.77952  -626.63751    -0.00000    -0.00000    -0.00000
  E(xc)     -29.43207   -29.43206   -30.60245     0.00000     0.00000    -0.00000
  Local   -1360.72574 -1360.72574  1461.89787    -0.00000     0.00000    -0.00000
  n-local   -20.78971   -20.55855   -18.18493    -1.49815    -0.12069    -0.35762
  augment     0.76882     0.77511     1.00407    -0.00786    -0.00208    -0.01389
  Kinetic   110.39757   112.77214   125.61665     5.11023    -0.42149    -1.43337
  Fock        0.00000     0.00000     0.00000     0.00000     0.00000     0.00000
  -------------------------------------------------------------------------------------
  Total       1.13503     1.13503    -0.70321    -0.00000     0.00000     0.00000
  in kB      35.23996    35.23996   -21.83295    -0.00000     0.00000     0.00000
  external pressure =       16.22 kB  Pullay stress =        0.00 kB


 VOLUME and BASIS-vectors are now :
 -----------------------------------------------------------------------------
  energy-cutoff  :      400.00
  volume of cell :       51.60
      direct lattice vectors                 reciprocal lattice vectors
     2.441046239  0.000000000  0.000000000     0.409660409  0.236517547  0.000000000
    -1.220523120  2.114008055  0.000000000     0.000000000  0.473035094  0.000000000
     0.000000000  0.000000000 10.000000000     0.000000000  0.000000000  0.100000000

  length of vectors
     2.441046239  2.441046239 10.000000000     0.473035094  0.473035094  0.100000000


 FORCES acting on ions
    electron-ion (+dipol)            ewald-force                    non-local-force                 convergence-correction
 -----------------------------------------------------------------------------------------------
   0.210E-06 -.341E-05 0.581E+02   0.107E-07 0.538E-08 -.606E+02   -.537E-16 0.368E-16 0.590E+01   -.127E-06 0.733E-07 0.136E-03
   -.216E-06 0.341E-05 -.581E+02   -.107E-07 -.538E-08 0.606E+02   0.430E-16 -.877E-16 -.590E+01   0.772E-07 -.446E-07 -.219E-03
 -----------------------------------------------------------------------------------------------
   -.524E-08 -.679E-09 0.464E-03   -.235E-14 0.518E-14 0.000E+00   -.107E-16 -.509E-16 -.406E-03   -.497E-07 0.287E-07 -.831E-04
 
 
 POSITION                                       TOTAL-FORCE (eV/Angst)
 -----------------------------------------------------------------------------------
      0.00000      0.00000      0.00000        -0.000000      0.000000      3.448038
     -0.00000      1.40934      0.20000         0.000000     -0.000000     -3.448038
 -----------------------------------------------------------------------------------
    total drift:                               -0.000000      0.000000     -0.000025


--------------------------------------------------------------------------------------------------------



  FREE ENERGIE OF THE ION-ELECTRON SYSTEM (eV)
  ---------------------------------------------------
  free  energy   TOTEN  =       -18.16682826 eV

  energy  without entropy=      -18.16404214  energy(sigma->0) =      -18.16589955
 


--------------------------------------------------------------------------------------------------------


    POTLOK:  cpu time    0.0105: real time    0.0105


--------------------------------------------------------------------------------------------------------




--------------------------------------------------------------------------------------------------------


    WAVPRE:  cpu time    0.0017: real time    0.0055
    FEWALD:  cpu time    0.0000: real time    0.0000
    GENKIN:  cpu time    0.0012: real time    0.0012
    ORTHCH:  cpu time    0.0044: real time    0.0044
     LOOP+:  cpu time    0.7524: real time    0.7673


--------------------------------------- Iteration      2(   1)  ---------------------------------------


    POTLOK:  cpu time    0.0089: real time    0.0109
    SETDIJ:  cpu time    0.0004: real time    0.0004
     EDDAV:  cpu time    0.0309: real time    0.0310
       DOS:  cpu time    0.0002: real time    0.0002
    CHARGE:  cpu time    0.0057: real time    0.0057
    MIXING:  cpu time    0.0004: real time    0.0004
    --------------------------------------------
      LOOP:  cpu time    0.0464: real time    0.0486

 eigenvalue-minimisations  :   192
 total energy-change (2. order) :-0.3345809E+00  (-0.4378312E+01)
 number of electron       7.9999982 magnetization 
 augmentation part        0.2306522 magnetization 

 Broyden mixing:
  rms(total) = 0.16284E+00    rms(broyden)= 0.16082E+00
  rms(prec ) = 0.21478E+00
  weight for this iteration     100.00

 Free energy of the ion-electron system (eV)
  ---------------------------------------------------
  alpha Z        PSCENC =         7.75971844
  Ewald energy   TEWEN  =       341.96465697
  -Hartree energ DENC   =      -609.20594597
  -exchange      EXHF   =         0.00000000
  -V(xc)+E(xc)   XCENC  =        28.54124582
  PAW double counting   =         0.00000000        0.00000000
  entropy T*S    EENTRO =        -0.00263924
  eigenvalues    EBANDS =       -79.65865726
  atomic energy  EATOM  =       292.10024138
  Solvation  Ediel_sol  =         0.00000000
  ---------------------------------------------------
  free energy    TOTEN  =       -18.50137987 eV

  energy without entropy =      -18.49874062  energy(sigma->0) =      -18.50050012


--------------------------------------------------------------------------------------------------------




--------------------------------------- Iteration      2(   2)  ---------------------------------------


    POTLOK:  cpu time    0.0072: real time    0.0076
    SETDIJ:  cpu time    0.0004: real time    0.0004
     EDDAV:  cpu time    0.0380: real time    0.0381
       DOS:  cpu time    0.0002: real time    0.0002
    CHARGE:  cpu time    0.0065: real time    0.0065
    MIXING:  cpu time    0.0005: real time    0.0005
    --------------------------------------------
      LOOP:  cpu time    0.0528: real time    0.0533

 eigenvalue-minimisations  :   240
 total energy-change (2. order) : 0.3089042E-01  (-0.8623977E-01)
 number of electron       7.9999981 magnetization 
 augmentation part        0.2345572 magnetization 

 Broyden mixing:
  rms(total) = 0.55494E-01    rms(broyden)= 0.54866E-01
  rms(prec ) = 0.75240E-01
  weight for this iteration     100.00

 eigenvalues of (default mixing * dielectric matrix)
  average eigenvalue GAMMA=   1.0147
  1.0147

 Free energy of the ion-electron system (eV)
  ---------------------------------------------------
  alpha Z        PSCENC =         7.75971844
  Ewald energy   TEWEN  =       341.96465697
  -Hartree energ DENC   =      -605.99549427
  -exchange      EXHF   =         0.00000000
  -V(xc)+E(xc)   XCENC  =        28.44385750
  PAW double counting   =         0.00000000        0.00000000
  entropy T*S    EENTRO =        -0.00231535
  eigenvalues    EBANDS =       -82.74115411
  atomic energy  EATOM  =       292.10024138
  Solvation  Ediel_sol  =         0.00000000
  ---------------------------------------------------
  free energy    TOTEN  =       -18.47048944 eV

  energy without entropy =      -18.46817409  energy(sigma->0) =      -18.46971766


--------------------------------------------------------------------------------------------------------




--------------------------------------- Iteration      2(   3)  ---------------------------------------


    POTLOK:  cpu time    0.0084: real time    0.0113
    SETDIJ:  cpu time    0.0004: real time    0.0004
     EDDAV:  cpu time    0.0413: real time    0.0414
       DOS:  cpu time    0.0003: real time    0.0003
    CHARGE:  cpu time    0.0058: real time    0.0058
    MIXING:  cpu time    0.0005: real time    0.0005
    --------------------------------------------
      LOOP:  cpu time    0.0565: real time    0.0596

 eigenvalue-minimisations  :   280
 total energy-change (2. order) : 0.2137764E-02  (-0.1139174E-01)
 number of electron       7.9999982 magnetization 
 augmentation part        0.2340948 magnetization 

 Broyden mixing:
  rms(total) = 0.43714E-01    rms(broyden)= 0.43474E-01
  rms(prec ) = 0.57887E-01
  weight for this iteration     100.00

 eigenvalues of (default mixing * dielectric matrix)
  average eigenvalue GAMMA=   0.8389
  1.1881  0.4897

 Free energy of the ion-electron system (eV)
  ---------------------------------------------------
  alpha Z        PSCENC =         7.75971844
  Ewald energy   TEWEN  =       341.96465697
  -Hartree energ DENC   =      -605.44214337
  -exchange      EXHF   =         0.00000000
  -V(xc)+E(xc)   XCENC  =        28.44820169
  PAW double counting   =         0.00000000        0.00000000
  entropy T*S    EENTRO =        -0.00225158
  eigenvalues    EBANDS =       -83.29677521
  atomic energy  EATOM  =       292.10024138
  Solvation  Ediel_sol  =         0.00000000
  ---------------------------------------------------
  free energy    TOTEN  =       -18.46835168 eV

  energy without entropy =      -18.46610010  energy(sigma->0) =      -18.46760115


--------------------------------------------------------------------------------------------------------




--------------------------------------- Iteration      2(   4)  ---------------------------------------


    POTLOK:  cpu time    0.0072: real time    0.0077
    SETDIJ:  cpu time    0.0004: real time    0.0004
     EDDAV:  cpu time    0.0345: real time    0.0345
       DOS:  cpu time    0.0003: real time    0.0003
    CHARGE:  cpu time    0.0057: real time    0.0057
    MIXING:  cpu time    0.0004: real time    0.0004
    --------------------------------------------
      LOOP:  cpu time    0.0484: real time    0.0490

 eigenvalue-minimisations  :   216
 total energy-change (2. order) : 0.3089951E-02  (-0.3488713E-02)
 number of electron       7.9999981 magnetization 
 augmentation part        0.2341073 magnetization 

 Broyden mixing:
  rms(total) = 0.12083E-01    rms(broyden)= 0.11772E-01
  rms(prec ) = 0.17686E-01
  weight for this iteration     100.00

 eigenvalues of (default mixing * dielectric matrix)
  average eigenvalue GAMMA=   0.8901
  1.3039  0.9230  0.4434

 Free energy of the ion-electron system (eV)
  ---------------------------------------------------
  alpha Z        PSCENC =         7.75971844
  Ewald energy   TEWEN  =       341.96465697
  -Hartree energ DENC   =      -605.12849652
  -exchange      EXHF   =         0.00000000
  -V(xc)+E(xc)   XCENC  =        28.44603467
  PAW double counting   =         0.00000000        0.00000000
  entropy T*S    EENTRO =        -0.00274650
  eigenvalues    EBANDS =       -83.60467016
  atomic energy  EATOM  =       292.10024138
  Solvation  Ediel_sol  =         0.00000000
  ---------------------------------------------------
  free energy    TOTEN  =       -18.46526173 eV

  energy without entropy =      -18.46251522  energy(sigma->0) =      -18.46434623


--------------------------------------------------------------------------------------------------------




--------------------------------------- Iteration      2(   5)  ---------------------------------------


    POTLOK:  cpu time    0.0074: real time    0.0078
    SETDIJ:  cpu time    0.0004: real time    0.0004
     EDDAV:  cpu time    0.0340: real time    0.0341
       DOS:  cpu time    0.0003: real time    0.0003
    CHARGE:  cpu time    0.0058: real time    0.0058
    MIXING:  cpu time    0.0005: real time    0.0005
    --------------------------------------------
      LOOP:  cpu time    0.0484: real time    0.0489

 eigenvalue-minimisations  :   224
 total energy-change (2. order) : 0.2469938E-03  (-0.2255009E-03)
 number of electron       7.9999981 magnetization 
 augmentation part        0.2341622 magnetization 

 Broyden mixing:
  rms(total) = 0.16587E-02    rms(broyden)= 0.16393E-02
  rms(prec ) = 0.61410E-02
  weight for this iteration     100.00

 eigenvalues of (default mixing * dielectric matrix)
  average eigenvalue GAMMA=   0.9506
  1.2345  1.2345  0.8915  0.4417

 Free energy of the ion-electron system (eV)
  ---------------------------------------------------
  alpha Z        PSCENC =         7.75971844
  Ewald energy   TEWEN  =       341.96465697
  -Hartree energ DENC   =      -604.76086148
  -exchange      EXHF   =         0.00000000
  -V(xc)+E(xc)   XCENC  =        28.44067931
  PAW double counting   =         0.00000000        0.00000000
  entropy T*S    EENTRO =        -0.00278588
  eigenvalues    EBANDS =       -83.96666348
  atomic energy  EATOM  =       292.10024138
  Solvation  Ediel_sol  =         0.00000000
  ---------------------------------------------------
  free energy    TOTEN  =       -18.46501473 eV

  energy without entropy =      -18.46222886  energy(sigma->0) =      -18.46408611


--------------------------------------------------------------------------------------------------------




--------------------------------------- Iteration      2(   6)  ---------------------------------------


    POTLOK:  cpu time    0.0077: real time    0.0081
    SETDIJ:  cpu time    0.0004: real time    0.0004
     EDDAV:  cpu time    0.0304: real time    0.0304
       DOS:  cpu time    0.0003: real time    0.0003
    CHARGE:  cpu time    0.0057: real time    0.0057
    MIXING:  cpu time    0.0004: real time    0.0004
    --------------------------------------------
      LOOP:  cpu time    0.0447: real time    0.0453

 eigenvalue-minimisations  :   200
 total energy-change (2. order) :-0.1705441E-03  (-0.3519285E-04)
 number of electron       7.9999981 magnetization 
 augmentation part        0.2342965 magnetization 

 Broyden mixing:
  rms(total) = 0.90165E-03    rms(broyden)= 0.89765E-03
  rms(prec ) = 0.32321E-02
  weight for this iteration     100.00

 eigenvalues of (default mixing * dielectric matrix)
  average eigenvalue GAMMA=   1.0568
  1.7522  1.2843  0.9027  0.9027  0.4421

 Free energy of the ion-electron system (eV)
  ---------------------------------------------------
  alpha Z        PSCENC =         7.75971844
  Ewald energy   TEWEN  =       341.96465697
  -Hartree energ DENC   =      -604.36288134
  -exchange      EXHF   =         0.00000000
  -V(xc)+E(xc)   XCENC  =        28.43388607
  PAW double counting   =         0.00000000        0.00000000
  entropy T*S    EENTRO =        -0.00278602
  eigenvalues    EBANDS =       -84.35802078
  atomic energy  EATOM  =       292.10024138
  Solvation  Ediel_sol  =         0.00000000
  ---------------------------------------------------
  free energy    TOTEN  =       -18.46518528 eV

  energy without entropy =      -18.46239926  energy(sigma->0) =      -18.46425660


--------------------------------------------------------------------------------------------------------




--------------------------------------- Iteration      2(   7)  ---------------------------------------


    POTLOK:  cpu time    0.0081: real time    0.0086
    SETDIJ:  cpu time    0.0004: real time    0.0004
     EDDAV:  cpu time    0.0380: real time    0.0381
       DOS:  cpu time    0.0002: real time    0.0002
    --------------------------------------------
      LOOP:  cpu time    0.0467: real time    0.0473

 eigenvalue-minimisations  :   240
 total energy-change (2. order) :-0.5358288E-04  (-0.1579200E-04)
 number of electron       7.9999981 magnetization 
 augmentation part        0.2342965 magnetization 

 Free energy of the ion-electron system (eV)
  ---------------------------------------------------
  alpha Z        PSCENC =         7.75971844
  Ewald energy   TEWEN  =       341.96465697
  -Hartree energ DENC   =      -604.07776800
  -exchange      EXHF   =         0.00000000
  -V(xc)+E(xc)   XCENC  =        28.43076166
  PAW double counting   =         0.00000000        0.00000000
  entropy T*S    EENTRO =        -0.00278610
  eigenvalues    EBANDS =       -84.64006321
  atomic energy  EATOM  =       292.10024138
  Solvation  Ediel_sol  =         0.00000000
  ---------------------------------------------------
  free energy    TOTEN  =       -18.46523886 eV

  energy without entropy =      -18.46245276  energy(sigma->0) =      -18.46431016


--------------------------------------------------------------------------------------------------------




 average (electrostatic) potential at core
  the test charge radii are     0.9437
  (the norm of the test charge is              1.0000)
       1 -46.4130       2 -46.4414
 
 
 
 E-fermi :  -1.6287     XC(G=0):  -4.3049     alpha+bet : -3.5759


 k-point     1 :       0.0000    0.0000    0.0000
  band No.  band energies     occupation 
      1     -20.7106      2.00000
      2      -8.8962      2.00000
      3      -4.7439      2.00000
      4      -4.7439      2.00000
      5       1.5841     -0.00000
      6       3.1419     -0.00000
      7       4.7660      0.00000
      8       6.3058      0.00000

 k-point     2 :       0.1111   -0.0000    0.0000
  band No.  band energies     occupation 
      1     -20.4287      2.00000
      2      -8.5633      2.00000
      3      -5.8256      2.00000
      4      -5.2810      2.00000
      5       1.9674     -0.00000
      6       3.5208     -0.00000
      7       5.1387      0.00000
      8       6.3719      0.00000

 k-point     3 :       0.2222   -0.0000    0.0000
  band No.  band energies     occupation 
      1     -19.5889      2.00000
      2      -8.2931      2.00000
      3      -7.5802      2.00000
      4      -6.3706      2.00000
      5       3.1131     -0.00000
      6       4.6378      0.00000
      7       5.8252      0.00000
      8       6.1273      0.00000

 k-point     4 :       0.3333    0.0000    0.0000
  band No.  band energies     occupation 
      1     -18.2137      2.00000
      2     -11.1200      2.00000
      3      -7.3374      2.00000
      4      -6.0319      2.00000
      5       3.0447     -0.00000
      6       5.0344      0.00000
      7       5.6201      0.00000
      8       6.5530      0.00000

 k-point     5 :       0.4444   -0.0000    0.0000
  band No.  band energies     occupation 
      1     -16.3925      2.00000
      2     -13.7507      2.00000
      3      -7.8727      2.00000
      4      -4.2834      2.00000
      5       0.5214     -0.00000
      6       5.3081      0.00000
      7       7.6942      0.00000
      8       9.1015      0.00000

 k-point     6 :       0.1111    0.1111    0.0000
  band No.  band energies     occupation 
      1     -19.8678      2.00000
      2      -7.9071      2.00000
      3      -7.3401      2.00000
      4      -6.3576      2.00000
      5       2.7328     -0.00000
      6       4.2746      0.00000
      7       5.8603      0.00000
      8       6.7137      0.00000

 k-point     7 :       0.2222    0.1111    0.0000
  band No.  band energies     occupation 
      1     -18.7599      2.00000
      2      -9.7104      2.00000
      3      -7.6741      2.00000
      4      -6.6297      2.00000
      5       4.0867      0.00000
      6       4.4024      0.00000
      7       5.7764      0.00000
      8       6.9715      0.00000

 k-point     8 :       0.3333    0.1111    0.0000
  band No.  band energies     occupation 
      1     -17.1464      2.00000
      2     -12.3642      2.00000
      3      -8.5186      2.00000
      4      -4.8910      2.00000
      5       1.5466     -0.00000
      6       6.5007      0.00000
      7       6.6786      0.00000
      8       7.9500      0.00000

 k-point     9 :       0.4444    0.1111    0.0000
  band No.  band energies     occupation 
      1     -15.5255      2.00000
      2     -14.3699      2.00000
      3      -8.8063      2.00000
      4      -3.6289      2.00000
      5      -0.0689     -0.00000
      6       6.4628      0.00000
      7       9.4499      0.00000
      8       9.6035      0.00000

 k-point    10 :       0.2222    0.2222    0.0000
  band No.  band energies     occupation 
      1     -17.4095      2.00000
      2     -11.2091      2.00000
      3      -9.5739      2.00000
      4      -5.1231      2.00000
      5       2.1176     -0.00000
      6       6.1785      0.00000
      7       7.5043      0.00000
      8       9.1562      0.00000

 k-point    11 :       0.3333    0.2222    0.0000
  band No.  band energies     occupation 
      1     -15.6406      2.00000
      2     -13.2243      2.00000
      3     -10.5440      2.00000
      4      -3.3427      2.00000
      5       0.0069     -0.00000
      6       8.7574      0.00000
      7       9.1743      0.00000
      8       9.2532      0.00000

 k-point    12 :       0.3333    0.3333    0.0000
  band No.  band energies     occupation 
      1     -14.0640      2.00000
      2     -14.0631      2.00000
      3     -11.8266      2.00000
      4      -1.6290      1.00279
      5      -1.6284      0.99721
      6       8.8975      0.00000
      7      10.7994      0.00000
      8      10.7999      0.00000


--------------------------------------------------------------------------------------------------------


 soft charge-density along one line, spin component           1
         0         1         2         3         4         5         6         7         8         9
 total charge-density along one line
 
 pseudopotential strength for first ion, spin component:           1
 13.721  -8.453   0.000  -0.001  -0.000  -0.000  -0.010   0.000
 -8.453   5.936  -0.000   0.000   0.000   0.000   0.010  -0.000
  0.000  -0.000 -10.716   0.000   0.000  41.775   0.000  -0.000
 -0.001   0.000   0.000 -10.549  -0.000   0.000  41.631  -0.000
 -0.000   0.000   0.000  -0.000 -10.716  -0.000  -0.000  41.775
 -0.000   0.000  41.775   0.000  -0.000  -8.644  -0.000   0.000
 -0.010   0.010   0.000  41.631  -0.000  -0.000  -9.936   0.000
  0.000  -0.000  -0.000  -0.000  41.775   0.000   0.000  -8.644
 total augmentation occupancy for first ion, spin component:           1
  0.903  -0.106  -0.011  -0.006  -0.023   0.000  -0.000   0.001
 -0.106   0.017  -0.000  -0.002   0.001   0.000   0.000   0.000
 -0.011  -0.000   0.469  -0.001  -0.062  -0.020   0.000  -0.001
 -0.006  -0.002  -0.001   0.370  -0.002   0.000  -0.010   0.000
 -0.023   0.001  -0.062  -0.002   0.413  -0.001   0.000  -0.020
  0.000   0.000  -0.020   0.000  -0.001   0.001  -0.000   0.000
 -0.000   0.000   0.000  -0.010   0.000  -0.000   0.000  -0.000
  0.001   0.000  -0.001   0.000  -0.020   0.000  -0.000   0.001


------------------------ aborting loop because EDIFF is reached ----------------------------------------


    CHARGE:  cpu time    0.0059: real time    0.0059
    FORLOC:  cpu time    0.0004: real time    0.0004
    FORNL :  cpu time    0.0139: real time    0.0139
    STRESS:  cpu time    0.0410: real time    0.0411
    FORHAR:  cpu time    0.0024: real time    0.0024
    MIXING:  cpu time    0.0006: real time    0.0006
    OFIELD:  cpu time    0.0000: real time    0.0000

  FORCE on cell =-STRESS in cart. coord.  units (eV):
  Direction    XX          YY          ZZ          XY          YZ          ZX
  --------------------------------------------------------------------------------------
  Alpha Z     7.75972     7.75972     7.75972
  Ewald     606.25508   606.25508  -870.54553     0.00000    -0.00000    -0.00000
  Hartree   592.29263   592.29263  -580.60028    -0.00000    -0.00000    -0.00000
  E(xc)     -29.06682   -29.06683   -30.27297    -0.00000     0.00000    -0.00000
  Local   -1268.08638 -1268.08641  1364.11637    -0.00003     0.00000    -0.00000
  n-local   -20.12922   -20.09429   -17.95873    -1.06243    -0.01913    -0.05429
  augment     0.78321     0.79327     1.02023    -0.01212    -0.00039    -0.00256
  Kinetic   106.60322   108.92923   126.44616     4.40424    -0.07382    -0.26621
  Fock        0.00000     0.00000     0.00000     0.00000     0.00000     0.00000
  -------------------------------------------------------------------------------------
  Total      -2.40309    -2.40309    -0.03504     0.00000     0.00000     0.00000
  in kB     -71.90616   -71.90616    -1.04854     0.00000     0.00000     0.00000
  external pressure =      -48.29 kB  Pullay stress =        0.00 kB


 VOLUME and BASIS-vectors are now :
 -----------------------------------------------------------------------------
  energy-cutoff  :      400.00
  volume of cell :       53.54
      direct lattice vectors                 reciprocal lattice vectors
     2.507878267 -0.000000000  0.000000000     0.398743437  0.230214631 -0.000000000
    -1.253939133  2.171886289  0.000000000     0.000000000  0.460429262 -0.000000000
     0.000000000  0.000000000  9.830376625    -0.000000000 -0.000000000  0.101725502

  length of vectors
     2.507878267  2.507878267  9.830376625     0.460429262  0.460429262  0.101725502


 FORCES acting on ions
    electron-ion (+dipol)            ewald-force                    non-local-force                 convergence-correction
 -----------------------------------------------------------------------------------------------
   -.612E-05 0.459E-06 0.898E+01   0.111E-07 0.567E-08 -.939E+01   0.651E-16 0.286E-16 0.976E+00   -.209E-05 0.121E-05 -.355E-03
   0.627E-05 -.177E-06 -.899E+01   -.111E-07 -.567E-08 0.939E+01   -.669E-16 0.193E-16 -.986E+00   0.236E-05 -.136E-05 -.525E-03
 -----------------------------------------------------------------------------------------------
   0.154E-06 0.282E-06 -.505E-03   -.117E-15 0.288E-15 0.000E+00   -.178E-17 0.479E-16 -.967E-02   0.271E-06 -.156E-06 -.880E-03
 
 
 POSITION                                       TOTAL-FORCE (eV/Angst)
 -----------------------------------------------------------------------------------
      0.00000      0.00000      0.00000         0.000000      0.000000      0.573270
     -0.00000      1.44792      0.03309        -0.000000     -0.000000     -0.573270
 -----------------------------------------------------------------------------------
    total drift:                                0.000000      0.000000     -0.011056


--------------------------------------------------------------------------------------------------------



  FREE ENERGIE OF THE ION-ELECTRON SYSTEM (eV)
  ---------------------------------------------------
  free  energy   TOTEN  =       -18.46523886 eV

  energy  without entropy=      -18.46245276  energy(sigma->0) =      -18.46431016
 
 d Force = 0.3287840E+00[ 0.937E-01, 0.564E+00]  d Energy = 0.2984106E+00 0.304E-01
 d Force =-0.5721235E+01[-0.154E+01,-0.991E+01]  d Ewald  = 0.4374527E+02-0.495E+02


--------------------------------------------------------------------------------------------------------


    POTLOK:  cpu time    0.0093: real time    0.0093


--------------------------------------------------------------------------------------------------------


 Steepest descent step on ions:
 trial-energy change:   -0.298411  1 .order   -0.306001   -0.647634    0.035632
  (g-gl).g = 0.648E+00      g.g   = 0.648E+00  gl.gl    = 0.000E+00
 g(Force)  = 0.574E+00   g(Stress)= 0.741E-01 ortho     = 0.000E+00
 gamma     =   0.00000
 trial     =   1.00000
 opt step  =   0.94435  (harmonic =   0.94785) maximal distance =0.00000000
 next E    =   -18.466232   (d E  =  -0.29940)


--------------------------------------------------------------------------------------------------------


    WAVPRE:  cpu time    0.0015: real time    0.0051
    FEWALD:  cpu time    0.0001: real time    0.0001
    GENKIN:  cpu time    0.0012: real time    0.0012
    ORTHCH:  cpu time    0.0044: real time    0.0044
     LOOP+:  cpu time    0.4268: real time    0.4442


--------------------------------------- Iteration      3(   1)  ---------------------------------------


    POTLOK:  cpu time    0.0091: real time    0.0116
    SETDIJ:  cpu time    0.0004: real time    0.0004
     EDDAV:  cpu time    0.0310: real time    0.0311
       DOS:  cpu time    0.0002: real time    0.0002
    CHARGE:  cpu time    0.0055: real time    0.0055
    MIXING:  cpu time    0.0004: real time    0.0004
    --------------------------------------------
      LOOP:  cpu time    0.0465: real time    0.0492

 eigenvalue-minimisations  :   192
 total energy-change (2. order) :-0.9372584E-03  (-0.1418792E-01)
 number of electron       7.9999980 magnetization 
 augmentation part        0.2353192 magnetization 

 Broyden mixing:
  rms(total) = 0.92353E-02    rms(broyden)= 0.90662E-02
  rms(prec ) = 0.11938E-01
  weight for this iteration     100.00

 Free energy of the ion-electron system (eV)
  ---------------------------------------------------
  alpha Z        PSCENC =         7.77531968
  Ewald energy   TEWEN  =       344.50616446
  -Hartree energ DENC   =      -606.24352974
  -exchange      EXHF   =         0.00000000
  -V(xc)+E(xc)   XCENC  =        28.44687231
  PAW double counting   =         0.00000000        0.00000000
  entropy T*S    EENTRO =        -0.00278608
  eigenvalues    EBANDS =       -85.04840455
  atomic energy  EATOM  =       292.10024138
  Solvation  Ediel_sol  =         0.00000000
  ---------------------------------------------------
  free energy    TOTEN  =       -18.46612254 eV

  energy without entropy =      -18.46333645  energy(sigma->0) =      -18.46519384


--------------------------------------------------------------------------------------------------------




[...]

    CHARGE:  cpu time    0.0062: real time    0.0062
    FORLOC:  cpu time    0.0005: real time    0.0005
    FORNL :  cpu time    0.0136: real time    0.0137
    STRESS:  cpu time    0.0429: real time    0.0430
    FORHAR:  cpu time    0.0022: real time    0.0022
    MIXING:  cpu time    0.0004: real time    0.0004
    OFIELD:  cpu time    0.0000: real time    0.0000

  FORCE on cell =-STRESS in cart. coord.  units (eV):
  Direction    XX          YY          ZZ          XY          YZ          ZX
  --------------------------------------------------------------------------------------
  Alpha Z     8.07272     8.07272     8.07272
  Ewald     632.83977   632.83977  -902.21917     0.00000    -0.00000    -0.00000
  Hartree   614.89084   614.89084  -603.60264    -0.00000    -0.00000    -0.00000
  E(xc)     -29.40574   -29.40573   -30.63064     0.00000     0.00000    -0.00000
  Local   -1316.24694 -1316.24699  1417.95362    -0.00004    -0.00000     0.00000
  n-local   -21.00456   -20.85450   -18.49163    -1.33113    -0.00095    -0.00287
  augment     0.74001     0.74428     1.02739    -0.00546    -0.00002    -0.00011
  Kinetic   108.96275   111.17068   127.86976     4.94671    -0.00319    -0.01095
  Fock        0.00000     0.00000     0.00000     0.00000     0.00000     0.00000
  -------------------------------------------------------------------------------------
  Total       0.02996     0.02996    -0.02059    -0.00000    -0.00000    -0.00000
  in kB       0.93262     0.93262    -0.64087    -0.00000    -0.00000    -0.00000
  external pressure =        0.41 kB  Pullay stress =        0.00 kB


 VOLUME and BASIS-vectors are now :
 -----------------------------------------------------------------------------
  energy-cutoff  :      400.00
  volume of cell :       51.47
      direct lattice vectors                 reciprocal lattice vectors
     2.461360189 -0.000000000  0.000000000     0.406279424  0.234565535 -0.000000000
    -1.230680094  2.131600451  0.000000000     0.000000000  0.469131070 -0.000000000
     0.000000000  0.000000000  9.809767406    -0.000000000 -0.000000000  0.101939216

  length of vectors
     2.461360189  2.461360189  9.809767406     0.469131070  0.469131070  0.101939216


 FORCES acting on ions
    electron-ion (+dipol)            ewald-force                    non-local-force                 convergence-correction
 -----------------------------------------------------------------------------------------------
   -.674E-05 0.349E-05 0.413E+00   0.113E-07 0.567E-08 -.433E+00   0.216E-15 -.163E-16 0.434E-01   -.716E-08 0.413E-08 0.923E-03
   0.672E-05 -.351E-05 -.415E+00   -.113E-07 -.567E-08 0.433E+00   0.212E-15 -.474E-16 -.406E-01   -.674E-08 0.389E-08 0.913E-03
 -----------------------------------------------------------------------------------------------
   -.171E-07 -.206E-07 -.180E-02   0.230E-14 0.125E-14 0.000E+00   0.428E-15 -.638E-16 0.276E-02   -.139E-07 0.803E-08 0.184E-02
 
 
 POSITION                                       TOTAL-FORCE (eV/Angst)
 -----------------------------------------------------------------------------------
      0.00000      0.00000      0.00000         0.000000      0.000000      0.023104
     -0.00000      1.42107      0.00143        -0.000000     -0.000000     -0.023104
 -----------------------------------------------------------------------------------
    total drift:                               -0.000000     -0.000000      0.002795


--------------------------------------------------------------------------------------------------------



  FREE ENERGIE OF THE ION-ELECTRON SYSTEM (eV)
  ---------------------------------------------------
  free  energy   TOTEN  =       -18.52012664 eV

  energy  without entropy=      -18.51734052  energy(sigma->0) =      -18.51919793
 
 d Force =-0.1340636E-06[-0.134E-06,-0.134E-06]  d Energy = 0.1491881E-05-0.163E-05
 d Force = 0.2509474E-05[ 0.251E-05, 0.250E-05]  d Ewald  = 0.2704456E-02-0.270E-02


--------------------------------------------------------------------------------------------------------


    POTLOK:  cpu time    0.0092: real time    0.0093


--------------------------------------------------------------------------------------------------------




--------------------------------------------------------------------------------------------------------


    WAVPRE:  cpu time    0.0018: real time    0.0078
    FEWALD:  cpu time    0.0001: real time    0.0001
    GENKIN:  cpu time    0.0013: real time    0.0013
    ORTHCH:  cpu time    0.0050: real time    0.0050
     LOOP+:  cpu time    0.1735: real time    0.1880


--------------------------------------- Iteration     10(   1)  ---------------------------------------


    POTLOK:  cpu time    0.0092: real time    0.0117
    SETDIJ:  cpu time    0.0004: real time    0.0004
     EDDAV:  cpu time    0.0307: real time    0.0307
       DOS:  cpu time    0.0003: real time    0.0003
    CHARGE:  cpu time    0.0069: real time    0.0069
    MIXING:  cpu time    0.0004: real time    0.0004
    --------------------------------------------
      LOOP:  cpu time    0.0477: real time    0.0504

 eigenvalue-minimisations  :   192
 total energy-change (2. order) :-0.5860915E-04  (-0.6341835E-03)
 number of electron       7.9999997 magnetization 
 augmentation part        0.2470931 magnetization 

 Broyden mixing:
  rms(total) = 0.25233E-02    rms(broyden)= 0.24944E-02
  rms(prec ) = 0.35363E-02
  weight for this iteration     100.00

 Free energy of the ion-electron system (eV)
  ---------------------------------------------------
  alpha Z        PSCENC =         8.07212145
  Ewald energy   TEWEN  =       362.65474534
  -Hartree energ DENC   =      -625.55303732
  -exchange      EXHF   =         0.00000000
  -V(xc)+E(xc)   XCENC  =        28.77582707
  PAW double counting   =         0.00000000        0.00000000
  entropy T*S    EENTRO =        -0.00278612
  eigenvalues    EBANDS =       -84.56729644
  atomic energy  EATOM  =       292.10024138
  Solvation  Ediel_sol  =         0.00000000
  ---------------------------------------------------
  free energy    TOTEN  =       -18.52018463 eV

  energy without entropy =      -18.51739851  energy(sigma->0) =      -18.51925593


--------------------------------------------------------------------------------------------------------




--------------------------------------- Iteration     10(   2)  ---------------------------------------


    POTLOK:  cpu time    0.0093: real time    0.0097
    SETDIJ:  cpu time    0.0005: real time    0.0005
     EDDAV:  cpu time    0.0361: real time    0.0362
       DOS:  cpu time    0.0002: real time    0.0002
    --------------------------------------------
      LOOP:  cpu time    0.0461: real time    0.0466

 eigenvalue-minimisations  :   232
 total energy-change (2. order) : 0.3097341E-04  (-0.1322499E-04)
 number of electron       7.9999997 magnetization 
 augmentation part        0.2470931 magnetization 

 Free energy of the ion-electron system (eV)
  ---------------------------------------------------
  alpha Z        PSCENC =         8.07212145
  Ewald energy   TEWEN  =       362.65474534
  -Hartree energ DENC   =      -625.45001230
  -exchange      EXHF   =         0.00000000
  -V(xc)+E(xc)   XCENC  =        28.77213173
  PAW double counting   =         0.00000000        0.00000000
  entropy T*S    EENTRO =        -0.00278611
  eigenvalues    EBANDS =       -84.66659515
  atomic energy  EATOM  =       292.10024138
  Solvation  Ediel_sol  =         0.00000000
  ---------------------------------------------------
  free energy    TOTEN  =       -18.52015366 eV

  energy without entropy =      -18.51736755  energy(sigma->0) =      -18.51922496


--------------------------------------------------------------------------------------------------------




 average (electrostatic) potential at core
  the test charge radii are     0.9437
  (the norm of the test charge is              1.0000)
       1 -46.2583       2 -46.2591
 
 
 
 E-fermi :  -1.4144     XC(G=0):  -4.3516     alpha+bet : -3.7199


 k-point     1 :       0.0000    0.0000    0.0000
  band No.  band energies     occupation 
      1     -20.9422      2.00000
      2      -9.0529      2.00000
      3      -4.5301      2.00000
      4      -4.5301      2.00000
      5       1.6301     -0.00000
      6       3.1935     -0.00000
      7       4.8381      0.00000
      8       6.8661      0.00000

 k-point     2 :       0.1111   -0.0000    0.0000
  band No.  band energies     occupation 
      1     -20.6509      2.00000
      2      -8.7042      2.00000
      3      -5.6335      2.00000
      4      -5.0989      2.00000
      5       2.0281     -0.00000
      6       3.5876     -0.00000
      7       5.2289      0.00000
      8       6.9629      0.00000

 k-point     3 :       0.2222   -0.0000    0.0000
  band No.  band energies     occupation 
      1     -19.7830      2.00000
      2      -8.1626      2.00000
      3      -7.6765      2.00000
      4      -6.2477      2.00000
      5       3.2211     -0.00000
      6       4.7535      0.00000
      7       6.3615      0.00000
      8       6.5989      0.00000

 k-point     4 :       0.3333    0.0000    0.0000
  band No.  band energies     occupation 
      1     -18.3595      2.00000
      2     -11.0774      2.00000
      3      -7.2632      2.00000
      4      -6.0501      2.00000
      5       3.4976     -0.00000
      6       5.1970      0.00000
      7       6.3390      0.00000
      8       6.7494      0.00000

 k-point     5 :       0.4444   -0.0000    0.0000
  band No.  band energies     occupation 
      1     -16.4567      2.00000
      2     -13.8127      2.00000
      3      -7.8245      2.00000
      4      -4.2048      2.00000
      5       0.8022     -0.00000
      6       6.0522      0.00000
      7       7.9672      0.00000
      8       9.4104      0.00000

 k-point     6 :       0.1111    0.1111    0.0000
  band No.  band energies     occupation 
      1     -20.0713      2.00000
      2      -8.0153      2.00000
      3      -7.1765      2.00000
      4      -6.2354      2.00000
      5       2.8243     -0.00000
      6       4.3719      0.00000
      7       6.0138      0.00000
      8       7.3768      0.00000

 k-point     7 :       0.2222    0.1111    0.0000
  band No.  band energies     occupation 
      1     -18.9255      2.00000
      2      -9.6104      2.00000
      3      -7.6108      2.00000
      4      -6.6785      2.00000
      5       4.4129      0.00000
      6       4.7505      0.00000
      7       5.9420      0.00000
      8       7.4947      0.00000

 k-point     8 :       0.3333    0.1111    0.0000
  band No.  band energies     occupation 
      1     -17.2515      2.00000
      2     -12.3581      2.00000
      3      -8.4869      2.00000
      4      -4.8497      2.00000
      5       1.9081     -0.00000
      6       6.7676      0.00000
      7       7.4023      0.00000
      8       8.2077      0.00000

 k-point     9 :       0.4444    0.1111    0.0000
  band No.  band energies     occupation 
      1     -15.5095      2.00000
      2     -14.4976      2.00000
      3      -8.7853      2.00000
      4      -3.5124      2.00000
      5       0.1845     -0.00000
      6       7.2397      0.00000
      7       9.8058      0.00000
      8       9.9453      0.00000

 k-point    10 :       0.2222    0.2222    0.0000
  band No.  band energies     occupation 
      1     -17.5266      2.00000
      2     -11.1172      2.00000
      3      -9.6130      2.00000
      4      -5.0957      2.00000
      5       2.5352     -0.00000
      6       6.3868      0.00000
      7       7.7418      0.00000
      8       9.5002      0.00000

 k-point    11 :       0.3333    0.2222    0.0000
  band No.  band energies     occupation 
      1     -15.6795      2.00000
      2     -13.2240      2.00000
      3     -10.6068      2.00000
      4      -3.2185      2.00000
      5       0.2977     -0.00000
      6       9.0823      0.00000
      7       9.5099      0.00000
      8      10.0804      0.00000

 k-point    12 :       0.3333    0.3333    0.0000
  band No.  band energies     occupation 
      1     -14.0230      2.00000
      2     -14.0229      2.00000
      3     -12.0226      2.00000
      4      -1.4146      1.00181
      5      -1.4141      0.99819
      6       9.1982      0.00000
      7      11.3942      0.00000
      8      11.3943      0.00000


--------------------------------------------------------------------------------------------------------


 soft charge-density along one line, spin component           1
         0         1         2         3         4         5         6         7         8         9
 total charge-density along one line
 
 pseudopotential strength for first ion, spin component:           1
 13.665  -8.438   0.000  -0.000  -0.000  -0.000  -0.000   0.000
 -8.438   5.933  -0.000   0.000   0.000   0.000  -0.000  -0.000
  0.000  -0.000 -10.670   0.000  -0.000  41.720   0.000  -0.000
 -0.000   0.000   0.000 -10.480  -0.000   0.000  41.557   0.000
 -0.000   0.000  -0.000  -0.000 -10.670  -0.000   0.000  41.720
 -0.000   0.000  41.720   0.000  -0.000  -8.467  -0.000   0.000
 -0.000  -0.000   0.000  41.557   0.000  -0.000  -9.945   0.000
  0.000  -0.000  -0.000   0.000  41.720   0.000   0.000  -8.467
 total augmentation occupancy for first ion, spin component:           1
  0.908  -0.112  -0.010   0.000  -0.021   0.000   0.000   0.001
 -0.112   0.019  -0.000   0.000   0.001   0.000  -0.000   0.000
 -0.010  -0.000   0.483   0.000  -0.063  -0.021   0.000  -0.001
  0.000   0.000   0.000   0.370   0.000  -0.000  -0.010  -0.000
 -0.021   0.001  -0.063   0.000   0.426  -0.001   0.000  -0.021
  0.000   0.000  -0.021  -0.000  -0.001   0.001  -0.000   0.000
  0.000  -0.000   0.000  -0.010   0.000  -0.000   0.000  -0.000
  0.001   0.000  -0.001  -0.000  -0.021   0.000  -0.000   0.001


------------------------ aborting loop because EDIFF is reached ----------------------------------------


    CHARGE:  cpu time    0.0066: real time    0.0066
    FORLOC:  cpu time    0.0004: real time    0.0004
    FORNL :  cpu time    0.0140: real time    0.0141
    STRESS:  cpu time    0.0417: real time    0.0418
    FORHAR:  cpu time    0.0022: real time    0.0022
    MIXING:  cpu time    0.0004: real time    0.0004
    OFIELD:  cpu time    0.0000: real time    0.0000

  FORCE on cell =-STRESS in cart. coord.  units (eV):
  Direction    XX          YY          ZZ          XY          YZ          ZX
  --------------------------------------------------------------------------------------
  Alpha Z     8.07212     8.07212     8.07212
  Ewald     631.95765   631.95765  -901.26058     0.00000     0.00000     0.00000
  Hartree   614.06933   614.06933  -602.77552    -0.00000    -0.00000    -0.00000
  E(xc)     -29.40105   -29.40105   -30.62583     0.00000     0.00000    -0.00000
  Local   -1314.56086 -1314.56091  1416.16723    -0.00004    -0.00000     0.00000
  n-local   -20.99050   -20.84227   -18.48232    -1.32682     0.00024     0.00071
  augment     0.74102     0.74540     1.02741    -0.00558     0.00000     0.00003
  Kinetic   108.92572   111.13556   127.83769     4.93830     0.00086     0.00305
  Fock        0.00000     0.00000     0.00000     0.00000     0.00000     0.00000
  -------------------------------------------------------------------------------------
  Total      -0.00537    -0.00537    -0.03980     0.00000     0.00000     0.00000
  in kB      -0.16701    -0.16701    -1.23874     0.00000     0.00000     0.00000
  external pressure =       -0.52 kB  Pullay stress =        0.00 kB


 VOLUME and BASIS-vectors are now :
 -----------------------------------------------------------------------------
  energy-cutoff  :      400.00
  volume of cell :       51.47
      direct lattice vectors                 reciprocal lattice vectors
     2.462060590 -0.000000000  0.000000000     0.406163847  0.234498806 -0.000000000
    -1.231030295  2.132207017  0.000000000     0.000000000  0.468997612 -0.000000000
     0.000000000  0.000000000  9.804915686    -0.000000000 -0.000000000  0.101989658

  length of vectors
     2.462060590  2.462060590  9.804915686     0.468997612  0.468997612  0.101989658


 FORCES acting on ions
    electron-ion (+dipol)            ewald-force                    non-local-force                 convergence-correction
 -----------------------------------------------------------------------------------------------
   -.667E-05 0.357E-05 -.913E-01   0.113E-07 0.567E-08 0.112E+00   -.111E-15 -.672E-16 -.908E-02   -.678E-08 0.397E-08 -.182E-01
   0.667E-05 -.357E-05 0.122E+00   -.113E-07 -.567E-08 -.112E+00   0.607E-16 0.120E-15 0.139E-01   -.242E-08 0.137E-08 -.171E-01
 -----------------------------------------------------------------------------------------------
   -.228E-08 0.555E-08 0.303E-01   -.441E-14 -.452E-14 0.000E+00   -.506E-16 0.526E-16 0.485E-02   -.921E-08 0.533E-08 -.353E-01
 
 
 POSITION                                       TOTAL-FORCE (eV/Angst)
 -----------------------------------------------------------------------------------
      0.00000      0.00000      0.00000        -0.000000     -0.000000     -0.006138
     -0.00000      1.42147     -0.00037         0.000000      0.000000      0.006138
 -----------------------------------------------------------------------------------
    total drift:                               -0.000000      0.000000     -0.000139


--------------------------------------------------------------------------------------------------------



  FREE ENERGIE OF THE ION-ELECTRON SYSTEM (eV)
  ---------------------------------------------------
  free  energy   TOTEN  =       -18.52015366 eV

  energy  without entropy=      -18.51736755  energy(sigma->0) =      -18.51922496
 
 d Force = 0.1533254E-04[-0.111E-04, 0.418E-04]  d Energy = 0.2702036E-04-0.117E-04
 d Force =-0.2893643E-03[ 0.203E-03,-0.782E-03]  d Ewald  = 0.8056620E+00-0.806E+00


--------------------------------------------------------------------------------------------------------


    POTLOK:  cpu time    0.0085: real time    0.0085


--------------------------------------------------------------------------------------------------------


 Conjugate gradient step on ions:
 trial-energy change:   -0.000027  1 .order   -0.000037   -0.000069   -0.000006
  (g-gl).g = 0.246E-02      g.g   = 0.793E-04  gl.gl    = 0.263E+00
 g(Force)  = 0.258E-04   g(Stress)= 0.535E-04 ortho     =-0.114E-04
 gamma     =   0.00934
 trial     =   0.87168
 opt step  =   0.94762  (harmonic =   0.94762) maximal distance =0.00000000
 next E    =   -18.520164   (d E  =  -0.00004)


--------------------------------------------------------------------------------------------------------


  
 reached required accuracy - stopping structural energy minimisation
     LOOP+:  cpu time    0.1704: real time    0.1820
    4ORBIT:  cpu time    0.0000: real time    0.0000

 total amount of memory used by VASP MPI-rank0    33674. kBytes
=======================================================================

   base      :      30000. kBytes
   nonlr-proj:        222. kBytes
   fftplans  :       1011. kBytes
   grid      :       1691. kBytes
   one-center:          6. kBytes
   wavefun   :        744. kBytes
 
  
  
 General timing and accounting informations for this job:
 ========================================================
  
                  Total CPU time used (sec):        3.155
                            User time (sec):        3.069
                          System time (sec):        0.086
                         Elapsed time (sec):        3.417
  
                   Maximum memory used (kb):       35016.
                   Average memory used (kb):           0.
  
                          Minor page faults:        13539
                          Major page faults:            0
                 Voluntary context switches:         2937
