   2   2   0   0
  0.1200000E+02  0.2000000E-09  0.3000000E-09  0.4000000E-09  0.5000000E-15
  1.000000000000000E-004
  CAR 
 unknown system                          
     22.41054907    -27.18292399  301      2.17343295      1.00000000
    -27.183  0.0000E+00  0.0000E+00
    -27.018  0.0000E+00  0.0000E+00
    -26.852  0.0000E+00  0.0000E+00
    -26.687  0.0000E+00  0.0000E+00
    -26.522  0.0000E+00  0.0000E+00
    -26.356  0.0000E+00  0.0000E+00
    -26.191  0.0000E+00  0.0000E+00
    -26.026  0.0000E+00  0.0000E+00
    -25.860 -0.6285E-39 -0.1039E-39
    -25.695 -0.8045E-27 -0.1330E-27
    -25.530 -0.4153E-17 -0.6866E-18
    -25.364 -0.7953E-10 -0.1315E-10
    -25.199 -0.5339E-05 -0.8826E-06
    -25.034 -0.3542E-03 -0.5943E-04
    -24.869  0.1150E-01  0.1841E-02
    -24.703  0.1001E-02  0.2006E-02
    -24.538 -0.3911E-04  0.2000E-02
    -24.373 -0.2924E-08  0.2000E-02
    -24.207 -0.6850E-15  0.2000E-02
    -24.042  0.0000E+00  0.2000E-02
    -23.877  0.0000E+00  0.2000E-02
    -23.711  0.0000E+00  0.2000E-02
    -23.546  0.0000E+00  0.2000E-02
    -23.381  0.0000E+00  0.2000E-02
    -23.215  0.0000E+00  0.2000E-02
    -23.050  0.0000E+00  0.2000E-02
    -22.885  0.0000E+00  0.2000E-02
    -22.720  0.0000E+00  0.2000E-02
    -22.554  0.0000E+00  0.2000E-02
    -22.389  0.0000E+00  0.2000E-02
    -22.224  0.0000E+00  0.2000E-02
    -22.058  0.0000E+00  0.2000E-02
    -21.893  0.0000E+00  0.2000E-02
    -21.728  0.0000E+00  0.2000E-02
    -21.562  0.0000E+00  0.2000E-02
    -21.397  0.0000E+00  0.2000E-02
    -21.232  0.0000E+00  0.2000E-02
    -21.066  0.0000E+00  0.2000E-02
    -20.901  0.0000E+00  0.2000E-02
    -20.736  0.0000E+00  0.2000E-02
    -20.570  0.0000E+00  0.2000E-02
    -20.405  0.0000E+00  0.2000E-02
    -20.240  0.0000E+00  0.2000E-02
    -20.075  0.0000E+00  0.2000E-02
    -19.909  0.0000E+00  0.2000E-02
    -19.744  0.0000E+00  0.2000E-02
    -19.579  0.0000E+00  0.2000E-02
    -19.413  0.0000E+00  0.2000E-02
    -19.248  0.0000E+00  0.2000E-02
    -19.083  0.0000E+00  0.2000E-02
    -18.917  0.0000E+00  0.2000E-02
    -18.752  0.0000E+00  0.2000E-02
    -18.587  0.0000E+00  0.2000E-02
    -18.421  0.0000E+00  0.2000E-02
    -18.256  0.0000E+00  0.2000E-02
    -18.091  0.0000E+00  0.2000E-02
    -17.925  0.0000E+00  0.2000E-02
    -17.760  0.0000E+00  0.2000E-02
    -17.595  0.0000E+00  0.2000E-02
    -17.430  0.0000E+00  0.2000E-02
    -17.264  0.0000E+00  0.2000E-02
    -17.099  0.0000E+00  0.2000E-02
    -16.934  0.0000E+00  0.2000E-02
    -16.768  0.0000E+00  0.2000E-02
    -16.603  0.0000E+00  0.2000E-02
    -16.438  0.0000E+00  0.2000E-02
    -16.272  0.0000E+00  0.2000E-02
    -16.107  0.0000E+00  0.2000E-02
    -15.942  0.0000E+00  0.2000E-02
    -15.776  0.0000E+00  0.2000E-02
    -15.611  0.0000E+00  0.2000E-02
    -15.446  0.0000E+00  0.2000E-02
    -15.280  0.0000E+00  0.2000E-02
    -15.115  0.0000E+00  0.2000E-02
    -14.950  0.0000E+00  0.2000E-02
    -14.785  0.0000E+00  0.2000E-02
    -14.619  0.0000E+00  0.2000E-02
    -14.454  0.0000E+00  0.2000E-02
    -14.289  0.0000E+00  0.2000E-02
    -14.123  0.0000E+00  0.2000E-02
    -13.958  0.0000E+00  0.2000E-02
    -13.793  0.0000E+00  0.2000E-02
    -13.627  0.0000E+00  0.2000E-02
    -13.462  0.0000E+00  0.2000E-02
    -13.297  0.0000E+00  0.2000E-02
    -13.131  0.0000E+00  0.2000E-02
    -12.966  0.0000E+00  0.2000E-02
    -12.801  0.0000E+00  0.2000E-02
    -12.636  0.0000E+00  0.2000E-02
    -12.470  0.0000E+00  0.2000E-02
    -12.305  0.0000E+00  0.2000E-02
    -12.140  0.0000E+00  0.2000E-02
    -11.974  0.0000E+00  0.2000E-02
    -11.809  0.0000E+00  0.2000E-02
    -11.644 -0.5779E-35  0.2000E-02
    -11.478 -0.1369E-23  0.2000E-02
    -11.313 -0.1256E-14  0.2000E-02
    -11.148 -0.4430E-08  0.2000E-02
    -10.982 -0.4835E-04  0.1992E-02
    -10.817  0.1330E-02  0.2212E-02
    -10.652  0.1122E-01  0.4066E-02
    -10.486 -0.3951E-03  0.4001E-02
    -10.321 -0.4042E-05  0.4000E-02
    -10.156 -0.4950E-10  0.4000E-02
     -9.991 -0.2686E-17  0.4000E-02
     -9.825  0.0000E+00  0.4000E-02
     -9.660  0.0000E+00  0.4000E-02
     -9.495  0.0000E+00  0.4000E-02
     -9.329  0.0000E+00  0.4000E-02
     -9.164  0.0000E+00  0.4000E-02
     -8.999  0.0000E+00  0.4000E-02
     -8.833  0.0000E+00  0.4000E-02
     -8.668  0.0000E+00  0.4000E-02
     -8.503  0.0000E+00  0.4000E-02
     -8.337 -0.1093E-30  0.4000E-02
     -8.172 -0.3719E-20  0.4000E-02
     -8.007 -0.4812E-12  0.4000E-02
     -7.841 -0.2310E-06  0.4000E-02
     -7.676 -0.2695E-03  0.3955E-02
     -7.511  0.6692E-02  0.5062E-02
     -7.346  0.5906E-02  0.6038E-02
     -7.180 -0.2298E-03  0.6000E-02
     -7.015 -0.1464E-06  0.6000E-02
     -6.850 -0.2373E-12  0.6000E-02
     -6.684 -0.4861E-18  0.6000E-02
     -6.519 -0.1703E-10  0.6000E-02
     -6.354 -0.2137E-05  0.6000E-02
     -6.188 -0.4268E-03  0.5929E-02
     -6.023  0.1041E-01  0.7650E-02
     -5.858  0.2194E-02  0.8012E-02
     -5.692 -0.7506E-04  0.8000E-02
     -5.527 -0.1081E-07  0.8000E-02
     -5.362 -0.4655E-14  0.8000E-02
     -5.196 -0.5463E-20  0.8000E-02
     -5.031 -0.6395E-12  0.8000E-02
     -4.866 -0.2771E-06  0.8000E-02
     -4.701 -0.2860E-03  0.7953E-02
     -4.535  0.7010E-02  0.9112E-02
     -4.370  0.5589E-02  0.1004E-01
     -4.205 -0.2142E-03  0.1000E-01
     -4.039 -0.1213E-06  0.1000E-01
     -3.874 -0.1774E-12  0.1000E-01
     -3.709  0.0000E+00  0.1000E-01
     -3.543  0.0000E+00  0.1000E-01
     -3.378  0.0000E+00  0.1000E-01
     -3.213  0.0000E+00  0.1000E-01
     -3.047  0.0000E+00  0.1000E-01
     -2.882  0.0000E+00  0.1000E-01
     -2.717  0.0000E+00  0.1000E-01
     -2.551  0.0000E+00  0.1000E-01
     -2.386  0.0000E+00  0.1000E-01
     -2.221  0.0000E+00  0.1000E-01
     -2.056  0.0000E+00  0.1000E-01
     -1.890  0.0000E+00  0.1000E-01
     -1.725  0.0000E+00  0.1000E-01
     -1.560  0.0000E+00  0.1000E-01
     -1.394  0.0000E+00  0.1000E-01
     -1.229  0.0000E+00  0.1000E-01
     -1.064  0.0000E+00  0.1000E-01
     -0.898  0.0000E+00  0.1000E-01
     -0.733  0.0000E+00  0.1000E-01
     -0.568  0.0000E+00  0.1000E-01
     -0.402  0.0000E+00  0.1000E-01
     -0.237  0.0000E+00  0.1000E-01
     -0.072  0.0000E+00  0.1000E-01
      0.093  0.0000E+00  0.1000E-01
      0.259  0.0000E+00  0.1000E-01
      0.424  0.0000E+00  0.1000E-01
      0.589  0.0000E+00  0.1000E-01
      0.755  0.0000E+00  0.1000E-01
      0.920  0.0000E+00  0.1000E-01
      1.085  0.0000E+00  0.1000E-01
      1.251 -0.3298E-38  0.1000E-01
      1.416 -0.3129E-26  0.1000E-01
      1.581 -0.1129E-16  0.1000E-01
      1.747 -0.1688E-09  0.1000E-01
      1.912 -0.8246E-05  0.9999E-02
      2.077 -0.2426E-03  0.9959E-02
      2.243  0.1183E-01  0.1191E-01
      2.408  0.3323E-03  0.1197E-01
      2.573  0.5655E-02  0.1290E-01
      2.738  0.6917E-02  0.1405E-01
      2.904 -0.2812E-03  0.1400E-01
      3.069 -0.2627E-06  0.1400E-01
      3.234 -0.5881E-12  0.1400E-01
      3.400  0.0000E+00  0.1400E-01
      3.565  0.0000E+00  0.1400E-01
      3.730  0.0000E+00  0.1400E-01
      3.896  0.0000E+00  0.1400E-01
      4.061  0.0000E+00  0.1400E-01
      4.226  0.0000E+00  0.1400E-01
      4.392  0.0000E+00  0.1400E-01
      4.557  0.0000E+00  0.1400E-01
      4.722  0.0000E+00  0.1400E-01
      4.888  0.0000E+00  0.1400E-01
      5.053  0.0000E+00  0.1400E-01
      5.218  0.0000E+00  0.1400E-01
      5.383  0.0000E+00  0.1400E-01
      5.549  0.0000E+00  0.1400E-01
      5.714  0.0000E+00  0.1400E-01
      5.879  0.0000E+00  0.1400E-01
      6.045  0.0000E+00  0.1400E-01
      6.210  0.0000E+00  0.1400E-01
      6.375  0.0000E+00  0.1400E-01
      6.541  0.0000E+00  0.1400E-01
      6.706  0.0000E+00  0.1400E-01
      6.871  0.0000E+00  0.1400E-01
      7.037  0.0000E+00  0.1400E-01
      7.202  0.0000E+00  0.1400E-01
      7.367  0.0000E+00  0.1400E-01
      7.533  0.0000E+00  0.1400E-01
      7.698  0.0000E+00  0.1400E-01
      7.863  0.0000E+00  0.1400E-01
      8.028  0.0000E+00  0.1400E-01
      8.194  0.0000E+00  0.1400E-01
      8.359  0.0000E+00  0.1400E-01
      8.524  0.0000E+00  0.1400E-01
      8.690  0.0000E+00  0.1400E-01
      8.855  0.0000E+00  0.1400E-01
      9.020  0.0000E+00  0.1400E-01
      9.186  0.0000E+00  0.1400E-01
      9.351  0.0000E+00  0.1400E-01
      9.516  0.0000E+00  0.1400E-01
      9.682  0.0000E+00  0.1400E-01
      9.847  0.0000E+00  0.1400E-01
     10.012  0.0000E+00  0.1400E-01
     10.177 -0.4136E-35  0.1400E-01
     10.343 -0.1044E-23  0.1400E-01
     10.508 -0.1021E-14  0.1400E-01
     10.673 -0.3844E-08  0.1400E-01
     10.839 -0.4500E-04  0.1399E-01
     11.004  0.1213E-02  0.1419E-01
     11.169  0.1132E-01  0.1606E-01
     11.335 -0.3832E-03  0.1600E-01
     11.500 -0.4450E-05  0.1600E-01
     11.665 -0.5828E-10  0.1600E-01
     11.831 -0.2686E-17  0.1600E-01
     11.996  0.0000E+00  0.1600E-01
     12.161  0.0000E+00  0.1600E-01
     12.327  0.0000E+00  0.1600E-01
     12.492  0.0000E+00  0.1600E-01
     12.657  0.0000E+00  0.1600E-01
     12.822  0.0000E+00  0.1600E-01
     12.988  0.0000E+00  0.1600E-01
     13.153  0.0000E+00  0.1600E-01
     13.318  0.0000E+00  0.1600E-01
     13.484 -0.4910E-34  0.1600E-01
     13.649 -0.7717E-23  0.1600E-01
     13.814 -0.4683E-14  0.1600E-01
     13.980 -0.1085E-07  0.1600E-01
     14.145 -0.7520E-04  0.1599E-01
     14.310  0.2198E-02  0.1635E-01
     14.476  0.1040E-01  0.1807E-01
     14.641 -0.4268E-03  0.1800E-01
     14.806 -0.2132E-05  0.1800E-01
     14.972 -0.1695E-10  0.1800E-01
     15.137  0.0000E+00  0.1800E-01
     15.302 -0.8832E-30  0.1800E-01
     15.467 -0.1954E-19  0.1800E-01
     15.633 -0.1636E-11  0.1800E-01
     15.798 -0.5030E-06  0.1800E-01
     15.963 -0.3406E-03  0.1794E-01
     16.129  0.8058E-02  0.1928E-01
     16.294  0.4548E-02  0.2003E-01
     16.459 -0.1661E-03  0.2000E-01
     16.625 -0.6359E-07  0.2000E-01
     16.790 -0.6615E-13  0.2000E-01
     16.955  0.0000E+00  0.2000E-01
     17.121  0.0000E+00  0.2000E-01
     17.286  0.0000E+00  0.2000E-01
     17.451  0.0000E+00  0.2000E-01
     17.617  0.0000E+00  0.2000E-01
     17.782  0.0000E+00  0.2000E-01
     17.947  0.0000E+00  0.2000E-01
     18.112  0.0000E+00  0.2000E-01
     18.278 -0.1021E-39  0.2000E-01
     18.443 -0.1808E-27  0.2000E-01
     18.608 -0.1293E-17  0.2000E-01
     18.774 -0.3448E-10  0.2000E-01
     18.939 -0.3263E-05  0.2000E-01
     19.104 -0.4141E-03  0.1993E-01
     19.270  0.1097E-01  0.2174E-01
     19.435  0.1605E-02  0.2201E-01
     19.600 -0.5644E-04  0.2200E-01
     19.766 -0.8956E-08  0.2200E-01
     19.931 -0.3911E-04  0.2199E-01
     20.096  0.1001E-02  0.2216E-01
     20.261  0.1150E-01  0.2406E-01
     20.427 -0.3542E-03  0.2400E-01
     20.592 -0.5339E-05  0.2400E-01
     20.757 -0.7953E-10  0.2400E-01
     20.923 -0.5373E-17  0.2400E-01
     21.088  0.0000E+00  0.2400E-01
     21.253  0.0000E+00  0.2400E-01
     21.419  0.0000E+00  0.2400E-01
     21.584  0.0000E+00  0.2400E-01
     21.749  0.0000E+00  0.2400E-01
     21.915  0.0000E+00  0.2400E-01
     22.080  0.0000E+00  0.2400E-01
     22.245  0.0000E+00  0.2400E-01
     22.411  0.0000E+00  0.2400E-01
