    2    2 1000    1
  0.1200000E+02  0.2000000E-09  0.3000000E-09  0.4000000E-09  0.5000000E-15
  1.000000000000000E-004
  CAR 
 unknown system                          
     11      1     12
 
  0.2500000E+00  0.2500000E+00  0.0000000E+00  0.1000000E+01
    1      -24.928675   1.000000
    2      -10.762530   1.000000
    3       -7.514491   1.000000
    4       -6.065334   1.000000
    5       -4.541846   1.000000
    6        2.173433   0.500000
    7        2.578893  -0.000000
    8       11.060506   0.000000
    9       14.352522   0.000000
   10       16.112173   0.000000
   11       19.219274   0.000000
   12       20.156300   0.000000
