 vasp.5.4.4.18Apr17-6-g9f103f2a35 (build Feb 29 2024 08:54:14) complex          
  
 executed on             LinuxIFC date 2024.03.19  12:29:53
 running on   12 total cores
 distrk:  each k-point on   12 cores,    1 groups
 distr:  one band on NCORES_PER_BAND=   1 cores,   12 groups


--------------------------------------------------------------------------------------------------------


 INCAR:
 POTCAR:   PAW_PBE N 08Apr2002                    
 POTCAR:   PAW_PBE O 08Apr2002                    

 ----------------------------------------------------------------------------- 
|                                                                             |
|           W    W    AA    RRRRR   N    N  II  N    N   GGGG   !!!           |
|           W    W   A  A   R    R  NN   N  II  NN   N  G    G  !!!           |
|           W    W  A    A  R    R  N N  N  II  N N  N  G       !!!           |
|           W WW W  AAAAAA  RRRRR   N  N N  II  N  N N  G  GGG   !            |
|           WW  WW  A    A  R   R   N   NN  II  N   NN  G    G                |
|           W    W  A    A  R    R  N    N  II  N    N   GGGG   !!!           |
|                                                                             |
|      For optimal performance we recommend to set                            |
|        NCORE= 4 - approx SQRT( number of cores)                             |
|      NCORE specifies how many cores store one orbital (NPAR=cpu/NCORE).     |
|      This setting can  greatly improve the performance of VASP for DFT.     |
|      The default,   NCORE=1            might be grossly inefficient         |
|      on modern multi-core architectures or massively parallel machines.     |
|      Do your own testing !!!!                                               |
|      Unfortunately you need to use the default for GW and RPA calculations. |
|      (for HF NCORE is supported but not extensively tested yet)             |
|                                                                             |
 ----------------------------------------------------------------------------- 

 POTCAR:   PAW_PBE N 08Apr2002                    
   VRHFIN =N: s2p3                                                              
   LEXCH  = PE                                                                  
   EATOM  =   264.5486 eV,   19.4438 Ry                                         
                                                                                
   TITEL  = PAW_PBE N 08Apr2002                                                 
   LULTRA =        F    use ultrasoft PP ?                                      
   IUNSCR =        0    unscreen: 0-lin 1-nonlin 2-no                           
   RPACOR =     .000    partial core radius                                     
   POMASS =   14.001; ZVAL   =    5.000    mass and valenz                      
   RCORE  =    1.500    outmost cutoff radius                                   
   RWIGS  =    1.400; RWIGS  =     .741    wigner-seitz radius (au A)           
   ENMAX  =  400.000; ENMIN  =  300.000 eV                                      
   ICORE  =        2    local potential                                         
   LCOR   =        T    correct aug charges                                     
   LPAW   =        T    paw PP                                                  
   EAUG   =  627.112                                                            
   DEXC   =     .000                                                            
   RMAX   =    2.247    core radius for proj-oper                               
   RAUG   =    1.300    factor for augmentation sphere                          
   RDEP   =    1.514    radius for radial grids                                 
   QCUT   =   -5.562; QGAM   =   11.124    optimization parameters              
                                                                                
   Description                                                                  
     l     E      TYP  RCUT    TYP  RCUT                                        
     0   .000     23  1.200                                                     
     0   .000     23  1.200                                                     
     1   .000     23  1.500                                                     
     1   .700     23  1.500                                                     
     2   .000      7  1.500                                                     
  local pseudopotential read in
  atomic valenz-charges read in
  non local Contribution for L=           0  read in
    real space projection operators read in
  non local Contribution for L=           0  read in
    real space projection operators read in
  non local Contribution for L=           1  read in
    real space projection operators read in
  non local Contribution for L=           1  read in
    real space projection operators read in
    PAW grid and wavefunctions read in
 
   number of l-projection  operators is LMAX  =           4
   number of lm-projection operators is LMMAX =           8
 
 POTCAR:   PAW_PBE O 08Apr2002                    
   VRHFIN =O: s2p4                                                              
   LEXCH  = PE                                                                  
   EATOM  =   432.3788 eV,   31.7789 Ry                                         
                                                                                
   TITEL  = PAW_PBE O 08Apr2002                                                 
   LULTRA =        F    use ultrasoft PP ?                                      
   IUNSCR =        0    unscreen: 0-lin 1-nonlin 2-no                           
   RPACOR =     .000    partial core radius                                     
   POMASS =   16.000; ZVAL   =    6.000    mass and valenz                      
   RCORE  =    1.520    outmost cutoff radius                                   
   RWIGS  =    1.550; RWIGS  =     .820    wigner-seitz radius (au A)           
   ENMAX  =  400.000; ENMIN  =  300.000 eV                                      
   ICORE  =        2    local potential                                         
   LCOR   =        T    correct aug charges                                     
   LPAW   =        T    paw PP                                                  
   EAUG   =  605.392                                                            
   DEXC   =     .000                                                            
   RMAX   =    2.264    core radius for proj-oper                               
   RAUG   =    1.300    factor for augmentation sphere                          
   RDEP   =    1.550    radius for radial grids                                 
   QCUT   =   -5.520; QGAM   =   11.041    optimization parameters              
                                                                                
   Description                                                                  
     l     E      TYP  RCUT    TYP  RCUT                                        
     0   .000     23  1.200                                                     
     0  -.700     23  1.200                                                     
     1   .000     23  1.520                                                     
     1   .600     23  1.520                                                     
     2   .000      7  1.500                                                     
  local pseudopotential read in
  atomic valenz-charges read in
  non local Contribution for L=           0  read in
    real space projection operators read in
  non local Contribution for L=           0  read in
    real space projection operators read in
  non local Contribution for L=           1  read in
    real space projection operators read in
  non local Contribution for L=           1  read in
    real space projection operators read in
    PAW grid and wavefunctions read in
 
   number of l-projection  operators is LMAX  =           4
   number of lm-projection operators is LMMAX =           8
 

 ----------------------------------------------------------------------------- 
|                                                                             |
|  ADVICE TO THIS USER RUNNING 'VASP/VAMP'   (HEAR YOUR MASTER'S VOICE ...):  |
|                                                                             |
|      You have a (more or less) 'small supercell' and for smaller cells      |
|      it is recommended  to use the reciprocal-space projection scheme!      |
|      The real space optimization is not  efficient for small cells and it   |
|      is also less accurate ...                                              |
|      Therefore set LREAL=.FALSE. in the  INCAR file                         |
|                                                                             |
 ----------------------------------------------------------------------------- 

 Optimization of the real space projectors (new method)

 maximal supplied QI-value         = 25.13
 optimisation between [QCUT,QGAM] = [ 12.32, 24.88] = [ 42.47,173.37] Ry 
 Optimized for a Real-space Cutoff    1.35 Angstroem

   l    n(q)    QCUT    max X(q) W(low)/X(q) W(high)/X(q)  e(spline) 
   0     10    12.315     4.511    0.23E-04    0.46E-05    0.84E-07
   0     10    12.315    37.799    0.59E-04    0.23E-05    0.59E-06
   1     10    12.315     2.478    0.27E-05    0.43E-06    0.89E-07
   1     10    12.315    13.693    0.13E-03    0.24E-03    0.75E-06
 Optimization of the real space projectors (new method)

 maximal supplied QI-value         = 24.76
 optimisation between [QCUT,QGAM] = [ 12.38, 25.00] = [ 42.90,175.06] Ry 
 Optimized for a Real-space Cutoff    1.16 Angstroem

   l    n(q)    QCUT    max X(q) W(low)/X(q) W(high)/X(q)  e(spline) 
   0      9    12.378     4.192    0.16E-04    0.96E-05    0.57E-07
   0      9    12.378     8.473    0.17E-03    0.81E-05    0.33E-06
   1      8    12.378     2.474    0.24E-04    0.82E-05    0.33E-07
   1      8    12.378     3.912    0.18E-03    0.14E-03    0.26E-06
 PAW_PBE N 08Apr2002                    :
 energy of atom  1       EATOM= -264.5486
 kinetic energy error for atom=    0.0103 (will be added to EATOM!!)
 PAW_PBE O 08Apr2002                    :
 energy of atom  2       EATOM= -432.3788
 kinetic energy error for atom=    0.0168 (will be added to EATOM!!)
 
 
 POSCAR: sisl output                             
  positions in direct lattice
  velocities in cartesian coordinates
 exchange correlation table for  LEXCH =        8
   RHO(1)=    0.500       N(1)  =     2000
   RHO(2)=  100.500       N(2)  =     4000
 


--------------------------------------------------------------------------------------------------------


 ion  position               nearest neighbor table
   1  0.500  0.500  0.560-   2 1.19
   2  0.500  0.500  0.263-   1 1.19
 
  LATTYP: Found a simple orthorhombic cell.
 ALAT       =     2.0000000000
 B/A-ratio  =     1.5000000000
 C/A-ratio  =     2.0000000000
  
  Lattice vectors:
  
 A1 = (   2.0000000000,   0.0000000000,   0.0000000000)
 A2 = (   0.0000000000,   3.0000000000,   0.0000000000)
 A3 = (   0.0000000000,   0.0000000000,   4.0000000000)


Analysis of symmetry for initial positions (statically):
=====================================================================
 Subroutine PRICEL returns:
 Original cell was already a primitive cell.
 

 Routine SETGRP: Setting up the symmetry group for a 
 simple orthorhombic supercell.


 Subroutine GETGRP returns: Found  4 space group operations
 (whereof  4 operations were pure point group operations)
 out of a pool of  8 trial point group operations.


The static configuration has the point symmetry C_2v.


Analysis of symmetry for dynamics (positions and initial velocities):
=====================================================================
 Subroutine PRICEL returns:
 Original cell was already a primitive cell.
 

 Routine SETGRP: Setting up the symmetry group for a 
 simple orthorhombic supercell.


 Subroutine GETGRP returns: Found  4 space group operations
 (whereof  4 operations were pure point group operations)
 out of a pool of  8 trial point group operations.


The dynamic configuration has the point symmetry C_2v.


Analysis of constrained symmetry for selective dynamics:
=====================================================================
 Subroutine PRICEL returns:
 Original cell was already a primitive cell.
 

 Routine SETGRP: Setting up the symmetry group for a 
 simple orthorhombic supercell.


 Subroutine GETGRP returns: Found  4 space group operations
 (whereof  4 operations were pure point group operations)
 out of a pool of  8 trial point group operations.


The constrained configuration has the point symmetry C_2v.


 Subroutine INISYM returns: Found  4 space group operations
 (whereof  4 operations are pure point group operations),
 and found     1 'primitive' translations

 
 
 KPOINTS: Automatic generation                    

Automatic generation of k-mesh.
Space group operators:
 irot       det(A)        alpha          n_x          n_y          n_z        tau_x        tau_y        tau_z
    1     1.000000     0.000000     1.000000     0.000000     0.000000     0.000000     0.000000     0.000000
    2     1.000000   180.000000     0.000000     0.000000     1.000000     0.000000     0.000000     0.000000
    3    -1.000000   180.000000     0.000000     1.000000     0.000000     0.000000     0.000000     0.000000
    4    -1.000000   180.000000     1.000000     0.000000     0.000000     0.000000     0.000000     0.000000
 
 Subroutine IBZKPT returns following result:
 ===========================================
 
 Found      1 irreducible k-points:
 
 Following reciprocal coordinates:
            Coordinates               Weight
  0.250000  0.250000  0.000000      4.000000
 
 Following cartesian coordinates:
            Coordinates               Weight
  0.125000  0.083333  0.000000      4.000000
 


--------------------------------------------------------------------------------------------------------




 Dimension of arrays:
   k-points           NKPTS =      1   k-points in BZ     NKDIM =      1   number of bands    NBANDS=     12
   number of dos      NEDOS =    301   number of ions     NIONS =      2
   non local maximal  LDIM  =      4   non local SUM 2l+1 LMDIM =      8
   total plane-waves  NPLWV =  12288
   max r-space proj   IRMAX =   5279   max aug-charges    IRDMAX=  53334
   dimension x,y,z NGX =    16 NGY =   24 NGZ =   32
   dimension x,y,z NGXF=    32 NGYF=   48 NGZF=   64
   support grid    NGXF=    64 NGYF=   96 NGZF=  128
   ions per type =               1   1
   NGX,Y,Z   is equivalent  to a cutoff of  13.30, 13.30, 13.30 a.u.
   NGXF,Y,Z  is equivalent  to a cutoff of  26.60, 26.60, 26.60 a.u.

 SYSTEM =  unknown system                          
 POSCAR =  sisl output                             

 Startparameter for this run:
   NWRITE =      2    write-flag & timer
   PREC   = accura    normal or accurate (medium, high low for compatibility)
   ISTART =      0    job   : 0-new  1-cont  2-samecut
   ICHARG =      2    charge: 1-file 2-atom 10-const
   ISPIN  =      1    spin polarized calculation?
   LNONCOLLINEAR =      F non collinear calculations
   LSORBIT =      F    spin-orbit coupling
   INIWAV =      1    electr: 0-lowe 1-rand  2-diag
   LASPH  =      F    aspherical Exc in radial PAW
   METAGGA=      F    non-selfconsistent MetaGGA calc.

 Electronic Relaxation 1
   ENCUT  =  600.0 eV  44.10 Ry    6.64 a.u.   3.99  5.99  7.99*2*pi/ulx,y,z
   ENINI  =  600.0     initial cutoff
   ENAUG  =  627.1 eV  augmentation charge cutoff
   NELM   =     60;   NELMIN=  2; NELMDL=  0     # of ELM steps 
   EDIFF  = 0.1E-05   stopping-criterion for ELM
   LREAL  =      T    real-space projection
   NLSPLINE    = F    spline interpolate recip. space projectors
   LCOMPAT=      F    compatible to vasp.4.4
   GGA_COMPAT  = T    GGA compatible to vasp.4.4-vasp.4.6
   LMAXPAW     = -100 max onsite density
   LMAXMIX     =    2 max onsite mixed and CHGCAR
   VOSKOWN=      0    Vosko Wilk Nusair interpolation
   ROPT   =   -0.00025  -0.00025
 Ionic relaxation
   EDIFFG = -.1E-01   stopping-criterion for IOM
   NSW    =   1000    number of steps for IOM
   NBLOCK =      1;   KBLOCK =   1000    inner block; outer block 
   IBRION =      2    ionic relax: 0-MD 1-quasi-New 2-CG
   NFREE  =      1    steps in history (QN), initial steepest desc. (CG)
   ISIF   =      2    stress and relaxation
   IWAVPR =     11    prediction:  0-non 1-charg 2-wave 3-comb
   ISYM   =      2    0-nonsym 1-usesym 2-fastsym
   LCORR  =      T    Harris-Foulkes like correction to forces

   POTIM  = 0.5000    time-step for ionic-motion
   TEIN   =    0.0    initial temperature
   TEBEG  =    0.0;   TEEND  =   0.0 temperature during run
   SMASS  =  -3.00    Nose mass-parameter (am)
   estimated Nose-frequenzy (Omega)   =  0.10E-29 period in steps =****** mass=  -0.914E-28a.u.
   SCALEE = 1.0000    scale energy and forces
   NPACO  =    256;   APACO  = 16.0  distance and # of slots for P.C.
   PSTRESS=    0.0 pullay stress

  Mass of Ions in am
   POMASS =  14.00 16.00
  Ionic Valenz
   ZVAL   =   5.00  6.00
  Atomic Wigner-Seitz radii
   RWIGS  =  -1.00 -1.00
  virtual crystal weights 
   VCA    =   1.00  1.00
   NELECT =      11.0000    total number of electrons
   NUPDOWN=      -1.0000    fix difference up-down

 DOS related values:
   EMIN   =  10.00;   EMAX   =-10.00  energy-range for DOS
   EFERMI =   0.00
   ISMEAR =     1;   SIGMA  =   0.10  broadening in eV -4-tet -1-fermi 0-gaus

 Electronic relaxation 2 (details)
   IALGO  =     68    algorithm
   LDIAG  =      T    sub-space diagonalisation (order eigenvalues)
   LSUBROT=      F    optimize rotation matrix (better conditioning)
   TURBO    =      0    0=normal 1=particle mesh
   IRESTART =      0    0=no restart 2=restart with 2 vectors
   NREBOOT  =      0    no. of reboots
   NMIN     =      0    reboot dimension
   EREF     =   0.00    reference energy to select bands
   IMIX   =      4    mixing-type and parameters
     AMIX     =   0.40;   BMIX     =  1.00
     AMIX_MAG =   1.60;   BMIX_MAG =  1.00
     AMIN     =   0.10
     WC   =   100.;   INIMIX=   1;  MIXPRE=   1;  MAXMIX= -45

 Intra band minimization:
   WEIMIN = 0.0010     energy-eigenvalue tresh-hold
   EBREAK =  0.21E-07  absolut break condition
   DEPER  =   0.30     relativ break condition  

   TIME   =   0.40     timestep for ELM

  volume/ion in A,a.u.               =      12.00        80.98
  Fermi-wavevector in a.u.,A,eV,Ry     =   1.262221  2.385251 21.676818  1.593201
  Thomas-Fermi vector in A             =   2.395640
 
 Write flags
   LWAVE        =      F    write WAVECAR
   LDOWNSAMPLE  =      F    k-point downsampling of WAVECAR
   LCHARG       =      T    write CHGCAR
   LVTOT        =      F    write LOCPOT, total local potential
   LVHAR        =      F    write LOCPOT, Hartree potential only
   LELF         =      F    write electronic localiz. function (ELF)
   LORBIT       =      0    0 simple, 1 ext, 2 COOP (PROOUT), +10 PAW based schemes


 Dipole corrections
   LMONO  =      F    monopole corrections only (constant potential shift)
   LDIPOL =      F    correct potential (dipole corrections)
   IDIPOL =      0    1-x, 2-y, 3-z, 4-all directions 
   EPSILON=  1.0000000 bulk dielectric constant

 Exchange correlation treatment:
   GGA     =    --    GGA type
   LEXCH   =     8    internal setting for exchange type
   VOSKOWN=      0    Vosko Wilk Nusair interpolation
   LHFCALC =     F    Hartree Fock is set to
   LHFONE  =     F    Hartree Fock one center treatment
   AEXX    =    0.0000 exact exchange contribution

 Linear response parameters
   LEPSILON=     F    determine dielectric tensor
   LRPA    =     F    only Hartree local field effects (RPA)
   LNABLA  =     F    use nabla operator in PAW spheres
   LVEL    =     F    velocity operator in full k-point grid
   LINTERFAST=   F  fast interpolation
   KINTER  =     0    interpolate to denser k-point grid
   CSHIFT  =0.1000    complex shift for real part using Kramers Kronig
   OMEGAMAX=  -1.0    maximum frequency
   DEG_THRESHOLD= 0.2000000E-02 threshold for treating states as degnerate
   RTIME   =   -0.100 relaxation time in fs
  (WPLASMAI=    0.000 imaginary part of plasma frequency in eV, 0.658/RTIME)
   DFIELD  = 0.0000000 0.0000000 0.0000000 field for delta impulse in time
 
 Orbital magnetization related:
   ORBITALMAG=     F  switch on orbital magnetization
   LCHIMAG   =     F  perturbation theory with respect to B field
   DQ        =  0.001000  dq finite difference perturbation B field
   LLRAUG    =     F  two centre corrections for induced B field



--------------------------------------------------------------------------------------------------------


 conjugate gradient relaxation of ions
   using selective dynamics as specified on POSCAR
 charge density and potential will be updated during run
 non-spin polarized calculation
 RMM-DIIS sequential band-by-band and
  variant of blocked Davidson during initial phase
 perform sub-space diagonalisation
    before iterative eigenvector-optimisation
 modified Broyden-mixing scheme, WC =      100.0
 initial mixing is a Kerker type mixing with AMIX =  0.4000 and BMIX =      1.0000
 Hartree-type preconditioning will be used
 using additional bands            6
 real space projection scheme for non local part
 calculate Harris-corrections to forces 
   (improved forces if not selfconsistent)
 use gradient corrections 
 use of overlap-Matrix (Vanderbilt PP)
 Methfessel and Paxton  Order N= 1 SIGMA  =   0.10


--------------------------------------------------------------------------------------------------------


  energy-cutoff  :      600.00
  volume of cell :       24.00
      direct lattice vectors                 reciprocal lattice vectors
     2.000000000  0.000000000  0.000000000     0.500000000  0.000000000  0.000000000
     0.000000000  3.000000000  0.000000000     0.000000000  0.333333333  0.000000000
     0.000000000  0.000000000  4.000000000     0.000000000  0.000000000  0.250000000

  length of vectors
     2.000000000  3.000000000  4.000000000     0.500000000  0.333333333  0.250000000


 
 k-points in units of 2pi/SCALE and weight: Automatic generation                    
   0.12500000  0.08333333  0.00000000       1.000
 
 k-points in reciprocal lattice and weights: Automatic generation                    
   0.25000000  0.25000000  0.00000000       1.000
 
 position of ions in fractional coordinates (direct lattice) 
   0.50000000  0.50000000  0.55967097
   0.50000000  0.50000000  0.26270557
 
 position of ions in cartesian coordinates  (Angst):
   1.00000000  1.50000000  2.23868389
   1.00000000  1.50000000  1.05082228
 


--------------------------------------------------------------------------------------------------------


 k-point  1 :   0.2500 0.2500 0.0000  plane waves:     798

 maximum and minimum number of plane-waves per node :       798      798

 maximum number of plane-waves:       798
 maximum index in each direction: 
   IXMAX=    3   IYMAX=    5   IZMAX=    7
   IXMIN=   -4   IYMIN=   -6   IZMIN=   -7


 serial   3D FFT for wavefunctions
 parallel 3D FFT for charge:
    minimum data exchange during FFTs selected (reduces bandwidth)


 total amount of memory used by VASP MPI-rank0    33187. kBytes
=======================================================================

   base      :      30000. kBytes
   nonlr-proj:        764. kBytes
   fftplans  :       1379. kBytes
   grid      :       1025. kBytes
   one-center:          6. kBytes
   wavefun   :         13. kBytes
 
     INWAV:  cpu time    0.0000: real time    0.0000
 Broyden mixing: mesh for mixing (old mesh)
   NGX =  7   NGY = 11   NGZ = 15
  (NGX  = 32   NGY  = 48   NGZ  = 64)
  gives a total of   1155 points

 initial charge density was supplied:
 charge density of overlapping atoms calculated
 number of electron      11.0000000 magnetization 
 keeping initial charge density in first step


--------------------------------------------------------------------------------------------------------


 Maximum index for non-local projection operator         5061
 Maximum index for augmentation-charges         4385 (set IRDMAX)


--------------------------------------------------------------------------------------------------------


 First call to EWALD:  gamma=   0.614
 Maximum number of real-space cells 4x 3x 2
 Maximum number of reciprocal cells 2x 3x 4

    FEWALD:  cpu time    0.0010: real time    0.0010


--------------------------------------- Iteration      1(   1)  ---------------------------------------


    POTLOK:  cpu time    0.0050: real time    0.0075
    SETDIJ:  cpu time    0.0027: real time    0.0027
     EDDAV:  cpu time    0.0030: real time    0.0030
       DOS:  cpu time    0.0001: real time    0.0002
    --------------------------------------------
      LOOP:  cpu time    0.0108: real time    0.0133

 eigenvalue-minimisations  :    24
 total energy-change (2. order) : 0.2848759E+02  (-0.7785362E+03)
 number of electron      11.0000000 magnetization 
 augmentation part       11.0000000 magnetization 

 Free energy of the ion-electron system (eV)
  ---------------------------------------------------
  alpha Z        PSCENC =        20.47869267
  Ewald energy   TEWEN  =      -397.32884096
  -Hartree energ DENC   =      -264.42272684
  -exchange      EXHF   =         0.00000000
  -V(xc)+E(xc)   XCENC  =        47.33938975
  PAW double counting   =       358.04542835     -361.27488502
  entropy T*S    EENTRO =        -0.02820948
  eigenvalues    EBANDS =       -71.22155003
  atomic energy  EATOM  =       696.90028792
  Solvation  Ediel_sol  =         0.00000000
  ---------------------------------------------------
  free energy    TOTEN  =        28.48758634 eV

  energy without entropy =       28.51579582  energy(sigma->0) =       28.49698950


--------------------------------------------------------------------------------------------------------




--------------------------------------- Iteration      1(   2)  ---------------------------------------


     EDDAV:  cpu time    0.0024: real time    0.0027
       DOS:  cpu time    0.0001: real time    0.0001
    --------------------------------------------
      LOOP:  cpu time    0.0025: real time    0.0028

 eigenvalue-minimisations  :    24
 total energy-change (2. order) :-0.3938574E+02  (-0.3938574E+02)
 number of electron      11.0000000 magnetization 
 augmentation part       11.0000000 magnetization 

 Free energy of the ion-electron system (eV)
  ---------------------------------------------------
  alpha Z        PSCENC =        20.47869267
  Ewald energy   TEWEN  =      -397.32884096
  -Hartree energ DENC   =      -264.42272684
  -exchange      EXHF   =         0.00000000
  -V(xc)+E(xc)   XCENC  =        47.33938975
  PAW double counting   =       358.04542835     -361.27488502
  entropy T*S    EENTRO =        -0.02820948
  eigenvalues    EBANDS =      -110.60728995
  atomic energy  EATOM  =       696.90028792
  Solvation  Ediel_sol  =         0.00000000
  ---------------------------------------------------
  free energy    TOTEN  =       -10.89815357 eV

  energy without entropy =      -10.86994409  energy(sigma->0) =      -10.88875041


--------------------------------------------------------------------------------------------------------




--------------------------------------- Iteration      1(   3)  ---------------------------------------


     EDDAV:  cpu time    0.0053: real time    0.0054
       DOS:  cpu time    0.0001: real time    0.0001
    --------------------------------------------
      LOOP:  cpu time    0.0054: real time    0.0055

 eigenvalue-minimisations  :    48
 total energy-change (2. order) :-0.6281970E+00  (-0.6281970E+00)
 number of electron      11.0000000 magnetization 
 augmentation part       11.0000000 magnetization 

 Free energy of the ion-electron system (eV)
  ---------------------------------------------------
  alpha Z        PSCENC =        20.47869267
  Ewald energy   TEWEN  =      -397.32884096
  -Hartree energ DENC   =      -264.42272684
  -exchange      EXHF   =         0.00000000
  -V(xc)+E(xc)   XCENC  =        47.33938975
  PAW double counting   =       358.04542835     -361.27488502
  entropy T*S    EENTRO =        -0.02820948
  eigenvalues    EBANDS =      -111.23548697
  atomic energy  EATOM  =       696.90028792
  Solvation  Ediel_sol  =         0.00000000
  ---------------------------------------------------
  free energy    TOTEN  =       -11.52635060 eV

  energy without entropy =      -11.49814112  energy(sigma->0) =      -11.51694744


--------------------------------------------------------------------------------------------------------




--------------------------------------- Iteration      1(   4)  ---------------------------------------


     EDDAV:  cpu time    0.0023: real time    0.0024
       DOS:  cpu time    0.0001: real time    0.0001
    --------------------------------------------
      LOOP:  cpu time    0.0025: real time    0.0026

 eigenvalue-minimisations  :    24
 total energy-change (2. order) :-0.9664308E-04  (-0.9664325E-04)
 number of electron      11.0000000 magnetization 
 augmentation part       11.0000000 magnetization 

 Free energy of the ion-electron system (eV)
  ---------------------------------------------------
  alpha Z        PSCENC =        20.47869267
  Ewald energy   TEWEN  =      -397.32884096
  -Hartree energ DENC   =      -264.42272684
  -exchange      EXHF   =         0.00000000
  -V(xc)+E(xc)   XCENC  =        47.33938975
  PAW double counting   =       358.04542835     -361.27488502
  entropy T*S    EENTRO =        -0.02820948
  eigenvalues    EBANDS =      -111.23558361
  atomic energy  EATOM  =       696.90028792
  Solvation  Ediel_sol  =         0.00000000
  ---------------------------------------------------
  free energy    TOTEN  =       -11.52644724 eV

  energy without entropy =      -11.49823776  energy(sigma->0) =      -11.51704408


--------------------------------------------------------------------------------------------------------




--------------------------------------- Iteration      1(   5)  ---------------------------------------


     EDDAV:  cpu time    0.0032: real time    0.0033
       DOS:  cpu time    0.0001: real time    0.0001
    CHARGE:  cpu time    0.0028: real time    0.0028
    MIXING:  cpu time    0.0002: real time    0.0002
    --------------------------------------------
      LOOP:  cpu time    0.0062: real time    0.0063

 eigenvalue-minimisations  :    36
 total energy-change (2. order) :-0.1772520E-06  (-0.1770870E-06)
 number of electron      11.0000000 magnetization 
 augmentation part        0.7826493 magnetization 

 Broyden mixing:
  rms(total) = 0.49108E+00    rms(broyden)= 0.48970E+00
  rms(prec ) = 0.89505E+00
  weight for this iteration     100.00

 Free energy of the ion-electron system (eV)
  ---------------------------------------------------
  alpha Z        PSCENC =        20.47869267
  Ewald energy   TEWEN  =      -397.32884096
  -Hartree energ DENC   =      -264.42272684
  -exchange      EXHF   =         0.00000000
  -V(xc)+E(xc)   XCENC  =        47.33938975
  PAW double counting   =       358.04542835     -361.27488502
  entropy T*S    EENTRO =        -0.02820948
  eigenvalues    EBANDS =      -111.23558379
  atomic energy  EATOM  =       696.90028792
  Solvation  Ediel_sol  =         0.00000000
  ---------------------------------------------------
  free energy    TOTEN  =       -11.52644742 eV

  energy without entropy =      -11.49823794  energy(sigma->0) =      -11.51704426


--------------------------------------------------------------------------------------------------------




--------------------------------------- Iteration      1(   6)  ---------------------------------------


    POTLOK:  cpu time    0.0032: real time    0.0033
    SETDIJ:  cpu time    0.0019: real time    0.0019
    EDDIAG:  cpu time    0.0025: real time    0.0026
  RMM-DIIS:  cpu time    0.0019: real time    0.0019
    ORTHCH:  cpu time    0.0001: real time    0.0001
       DOS:  cpu time    0.0001: real time    0.0001
    CHARGE:  cpu time    0.0022: real time    0.0022
    MIXING:  cpu time    0.0002: real time    0.0002
    --------------------------------------------
      LOOP:  cpu time    0.0121: real time    0.0123

 eigenvalue-minimisations  :    24
 total energy-change (2. order) : 0.2388266E+00  (-0.3167014E-01)
 number of electron      11.0000000 magnetization 
 augmentation part        0.7364418 magnetization 

 Broyden mixing:
  rms(total) = 0.27919E+00    rms(broyden)= 0.27898E+00
  rms(prec ) = 0.55892E+00
  weight for this iteration     100.00

 eigenvalues of (default mixing * dielectric matrix)
  average eigenvalue GAMMA=   0.9874
  0.9874

 Free energy of the ion-electron system (eV)
  ---------------------------------------------------
  alpha Z        PSCENC =        20.47869267
  Ewald energy   TEWEN  =      -397.32884096
  -Hartree energ DENC   =      -269.23386151
  -exchange      EXHF   =         0.00000000
  -V(xc)+E(xc)   XCENC  =        47.74807182
  PAW double counting   =       396.44350433     -399.76935246
  entropy T*S    EENTRO =        -0.02820948
  eigenvalues    EBANDS =      -106.49791310
  atomic energy  EATOM  =       696.90028792
  Solvation  Ediel_sol  =         0.00000000
  ---------------------------------------------------
  free energy    TOTEN  =       -11.28762078 eV

  energy without entropy =      -11.25941130  energy(sigma->0) =      -11.27821762


--------------------------------------------------------------------------------------------------------




--------------------------------------- Iteration      1(   7)  ---------------------------------------


    POTLOK:  cpu time    0.0032: real time    0.0034
    SETDIJ:  cpu time    0.0018: real time    0.0019
    EDDIAG:  cpu time    0.0009: real time    0.0009
  RMM-DIIS:  cpu time    0.0016: real time    0.0016
    ORTHCH:  cpu time    0.0001: real time    0.0001
       DOS:  cpu time    0.0001: real time    0.0001
    CHARGE:  cpu time    0.0021: real time    0.0022
    MIXING:  cpu time    0.0002: real time    0.0002
    --------------------------------------------
      LOOP:  cpu time    0.0101: real time    0.0104

 eigenvalue-minimisations  :    24
 total energy-change (2. order) : 0.7553329E-01  (-0.5139432E-02)
 number of electron      11.0000000 magnetization 
 augmentation part        0.7531813 magnetization 

 Broyden mixing:
  rms(total) = 0.16851E+00    rms(broyden)= 0.16844E+00
  rms(prec ) = 0.30229E+00
  weight for this iteration     100.00

 eigenvalues of (default mixing * dielectric matrix)
  average eigenvalue GAMMA=   1.2962
  2.0461  0.5462

 Free energy of the ion-electron system (eV)
  ---------------------------------------------------
  alpha Z        PSCENC =        20.47869267
  Ewald energy   TEWEN  =      -397.32884096
  -Hartree energ DENC   =      -269.13659336
  -exchange      EXHF   =         0.00000000
  -V(xc)+E(xc)   XCENC  =        47.80981124
  PAW double counting   =       409.98390227     -413.28779875
  entropy T*S    EENTRO =        -0.02820948
  eigenvalues    EBANDS =      -106.60333903
  atomic energy  EATOM  =       696.90028792
  Solvation  Ediel_sol  =         0.00000000
  ---------------------------------------------------
  free energy    TOTEN  =       -11.21208750 eV

  energy without entropy =      -11.18387802  energy(sigma->0) =      -11.20268434


--------------------------------------------------------------------------------------------------------




--------------------------------------- Iteration      1(   8)  ---------------------------------------


    POTLOK:  cpu time    0.0034: real time    0.0036
    SETDIJ:  cpu time    0.0018: real time    0.0018
    EDDIAG:  cpu time    0.0008: real time    0.0008
  RMM-DIIS:  cpu time    0.0016: real time    0.0016
    ORTHCH:  cpu time    0.0001: real time    0.0001
       DOS:  cpu time    0.0001: real time    0.0001
    CHARGE:  cpu time    0.0021: real time    0.0021
    MIXING:  cpu time    0.0002: real time    0.0002
    --------------------------------------------
      LOOP:  cpu time    0.0101: real time    0.0103

 eigenvalue-minimisations  :    24
 total energy-change (2. order) : 0.2829107E-01  (-0.4817610E-02)
 number of electron      11.0000000 magnetization 
 augmentation part        0.7414345 magnetization 

 Broyden mixing:
  rms(total) = 0.34912E-01    rms(broyden)= 0.34886E-01
  rms(prec ) = 0.56379E-01
  weight for this iteration     100.00

 eigenvalues of (default mixing * dielectric matrix)
  average eigenvalue GAMMA=   1.5377
  2.4016  1.6671  0.5443

 Free energy of the ion-electron system (eV)
  ---------------------------------------------------
  alpha Z        PSCENC =        20.47869267
  Ewald energy   TEWEN  =      -397.32884096
  -Hartree energ DENC   =      -270.75834909
  -exchange      EXHF   =         0.00000000
  -V(xc)+E(xc)   XCENC  =        47.99322415
  PAW double counting   =       436.77129041     -440.08362350
  entropy T*S    EENTRO =        -0.02820947
  eigenvalues    EBANDS =      -105.12826855
  atomic energy  EATOM  =       696.90028792
  Solvation  Ediel_sol  =         0.00000000
  ---------------------------------------------------
  free energy    TOTEN  =       -11.18379642 eV

  energy without entropy =      -11.15558695  energy(sigma->0) =      -11.17439327


--------------------------------------------------------------------------------------------------------




--------------------------------------- Iteration      1(   9)  ---------------------------------------


    POTLOK:  cpu time    0.0032: real time    0.0034
    SETDIJ:  cpu time    0.0018: real time    0.0018
    EDDIAG:  cpu time    0.0007: real time    0.0007
  RMM-DIIS:  cpu time    0.0016: real time    0.0016
    ORTHCH:  cpu time    0.0001: real time    0.0001
       DOS:  cpu time    0.0001: real time    0.0001
    CHARGE:  cpu time    0.0021: real time    0.0021
    MIXING:  cpu time    0.0002: real time    0.0002
    --------------------------------------------
      LOOP:  cpu time    0.0098: real time    0.0100

 eigenvalue-minimisations  :    24
 total energy-change (2. order) : 0.1939747E-03  (-0.1613610E-03)
 number of electron      11.0000000 magnetization 
 augmentation part        0.7409843 magnetization 

 Broyden mixing:
  rms(total) = 0.76662E-02    rms(broyden)= 0.76449E-02
  rms(prec ) = 0.18598E-01
  weight for this iteration     100.00

 eigenvalues of (default mixing * dielectric matrix)
  average eigenvalue GAMMA=   1.5753
  0.5461  2.5197  1.8869  1.3484

 Free energy of the ion-electron system (eV)
  ---------------------------------------------------
  alpha Z        PSCENC =        20.47869267
  Ewald energy   TEWEN  =      -397.32884096
  -Hartree energ DENC   =      -270.44806690
  -exchange      EXHF   =         0.00000000
  -V(xc)+E(xc)   XCENC  =        47.98071284
  PAW double counting   =       442.62645948     -445.91388542
  entropy T*S    EENTRO =        -0.02820940
  eigenvalues    EBANDS =      -105.45075268
  atomic energy  EATOM  =       696.90028792
  Solvation  Ediel_sol  =         0.00000000
  ---------------------------------------------------
  free energy    TOTEN  =       -11.18360245 eV

  energy without entropy =      -11.15539305  energy(sigma->0) =      -11.17419932


--------------------------------------------------------------------------------------------------------




--------------------------------------- Iteration      1(  10)  ---------------------------------------


    POTLOK:  cpu time    0.0033: real time    0.0036
    SETDIJ:  cpu time    0.0018: real time    0.0018
    EDDIAG:  cpu time    0.0007: real time    0.0007
  RMM-DIIS:  cpu time    0.0016: real time    0.0016
    ORTHCH:  cpu time    0.0001: real time    0.0001
       DOS:  cpu time    0.0001: real time    0.0001
    CHARGE:  cpu time    0.0021: real time    0.0021
    MIXING:  cpu time    0.0002: real time    0.0002
    --------------------------------------------
      LOOP:  cpu time    0.0100: real time    0.0103

 eigenvalue-minimisations  :    24
 total energy-change (2. order) : 0.2709973E-04  (-0.1507791E-04)
 number of electron      11.0000000 magnetization 
 augmentation part        0.7420375 magnetization 

 Broyden mixing:
  rms(total) = 0.34521E-02    rms(broyden)= 0.34476E-02
  rms(prec ) = 0.80994E-02
  weight for this iteration     100.00

 eigenvalues of (default mixing * dielectric matrix)
  average eigenvalue GAMMA=   1.6031
  0.5469  1.0383  2.4033  2.2279  1.7993

 Free energy of the ion-electron system (eV)
  ---------------------------------------------------
  alpha Z        PSCENC =        20.47869267
  Ewald energy   TEWEN  =      -397.32884096
  -Hartree energ DENC   =      -270.41625747
  -exchange      EXHF   =         0.00000000
  -V(xc)+E(xc)   XCENC  =        47.97852037
  PAW double counting   =       443.03288026     -446.31545368
  entropy T*S    EENTRO =        -0.02820941
  eigenvalues    EBANDS =      -105.48519504
  atomic energy  EATOM  =       696.90028792
  Solvation  Ediel_sol  =         0.00000000
  ---------------------------------------------------
  free energy    TOTEN  =       -11.18357535 eV

  energy without entropy =      -11.15536594  energy(sigma->0) =      -11.17417221


--------------------------------------------------------------------------------------------------------




--------------------------------------- Iteration      1(  11)  ---------------------------------------


    POTLOK:  cpu time    0.0033: real time    0.0037
    SETDIJ:  cpu time    0.0019: real time    0.0019
    EDDIAG:  cpu time    0.0007: real time    0.0007
  RMM-DIIS:  cpu time    0.0016: real time    0.0016
    ORTHCH:  cpu time    0.0001: real time    0.0001
       DOS:  cpu time    0.0001: real time    0.0001
    CHARGE:  cpu time    0.0022: real time    0.0022
    MIXING:  cpu time    0.0002: real time    0.0002
    --------------------------------------------
      LOOP:  cpu time    0.0101: real time    0.0106

 eigenvalue-minimisations  :    24
 total energy-change (2. order) : 0.1009814E-04  (-0.2505740E-05)
 number of electron      11.0000000 magnetization 
 augmentation part        0.7416684 magnetization 

 Broyden mixing:
  rms(total) = 0.46844E-03    rms(broyden)= 0.46557E-03
  rms(prec ) = 0.10661E-02
  weight for this iteration     100.00

 eigenvalues of (default mixing * dielectric matrix)
  average eigenvalue GAMMA=   1.6862
  0.5470  2.7216  0.9850  2.2494  1.8071  1.8071

 Free energy of the ion-electron system (eV)
  ---------------------------------------------------
  alpha Z        PSCENC =        20.47869267
  Ewald energy   TEWEN  =      -397.32884096
  -Hartree energ DENC   =      -270.47652969
  -exchange      EXHF   =         0.00000000
  -V(xc)+E(xc)   XCENC  =        47.98239851
  PAW double counting   =       443.15253866     -446.43557152
  entropy T*S    EENTRO =        -0.02820941
  eigenvalues    EBANDS =      -105.42833142
  atomic energy  EATOM  =       696.90028792
  Solvation  Ediel_sol  =         0.00000000
  ---------------------------------------------------
  free energy    TOTEN  =       -11.18356525 eV

  energy without entropy =      -11.15535584  energy(sigma->0) =      -11.17416211


--------------------------------------------------------------------------------------------------------




--------------------------------------- Iteration      1(  12)  ---------------------------------------


    POTLOK:  cpu time    0.0032: real time    0.0034
    SETDIJ:  cpu time    0.0019: real time    0.0019
    EDDIAG:  cpu time    0.0008: real time    0.0008
  RMM-DIIS:  cpu time    0.0017: real time    0.0017
    ORTHCH:  cpu time    0.0001: real time    0.0001
       DOS:  cpu time    0.0001: real time    0.0001
    CHARGE:  cpu time    0.0022: real time    0.0022
    MIXING:  cpu time    0.0002: real time    0.0002
    --------------------------------------------
      LOOP:  cpu time    0.0103: real time    0.0106

 eigenvalue-minimisations  :    21
 total energy-change (2. order) :-0.1536961E-05  (-0.2221937E-06)
 number of electron      11.0000000 magnetization 
 augmentation part        0.7416599 magnetization 

 Broyden mixing:
  rms(total) = 0.34273E-03    rms(broyden)= 0.34210E-03
  rms(prec ) = 0.83792E-03
  weight for this iteration     100.00

 eigenvalues of (default mixing * dielectric matrix)
  average eigenvalue GAMMA=   1.6253
  2.7818  2.4873  0.5469  1.8670  1.0071  1.4900  1.1967

 Free energy of the ion-electron system (eV)
  ---------------------------------------------------
  alpha Z        PSCENC =        20.47869267
  Ewald energy   TEWEN  =      -397.32884096
  -Hartree energ DENC   =      -270.46242460
  -exchange      EXHF   =         0.00000000
  -V(xc)+E(xc)   XCENC  =        47.98170961
  PAW double counting   =       443.12721611     -446.40973358
  entropy T*S    EENTRO =        -0.02820941
  eigenvalues    EBANDS =      -105.44226453
  atomic energy  EATOM  =       696.90028792
  Solvation  Ediel_sol  =         0.00000000
  ---------------------------------------------------
  free energy    TOTEN  =       -11.18356679 eV

  energy without entropy =      -11.15535737  energy(sigma->0) =      -11.17416365


--------------------------------------------------------------------------------------------------------




--------------------------------------- Iteration      1(  13)  ---------------------------------------


    POTLOK:  cpu time    0.0032: real time    0.0034
    SETDIJ:  cpu time    0.0019: real time    0.0019
    EDDIAG:  cpu time    0.0007: real time    0.0007
  RMM-DIIS:  cpu time    0.0015: real time    0.0016
    ORTHCH:  cpu time    0.0001: real time    0.0001
       DOS:  cpu time    0.0001: real time    0.0001
    --------------------------------------------
      LOOP:  cpu time    0.0075: real time    0.0078

 eigenvalue-minimisations  :    16
 total energy-change (2. order) : 0.2201368E-06  (-0.2162218E-07)
 number of electron      11.0000000 magnetization 
 augmentation part        0.7416599 magnetization 

 Free energy of the ion-electron system (eV)
  ---------------------------------------------------
  alpha Z        PSCENC =        20.47869267
  Ewald energy   TEWEN  =      -397.32884096
  -Hartree energ DENC   =      -270.46674103
  -exchange      EXHF   =         0.00000000
  -V(xc)+E(xc)   XCENC  =        47.98206938
  PAW double counting   =       443.11820043     -446.40084002
  entropy T*S    EENTRO =        -0.02820941
  eigenvalues    EBANDS =      -105.43818554
  atomic energy  EATOM  =       696.90028792
  Solvation  Ediel_sol  =         0.00000000
  ---------------------------------------------------
  free energy    TOTEN  =       -11.18356657 eV

  energy without entropy =      -11.15535715  energy(sigma->0) =      -11.17416343


--------------------------------------------------------------------------------------------------------




 average (electrostatic) potential at core
  the test charge radii are     0.7089  0.7215
  (the norm of the test charge is              1.0000)
       1 -70.7319       2 -77.6778
 
 
 
 E-fermi :   2.1726     XC(G=0):  -8.9747     alpha+bet : -6.7415


 k-point     1 :       0.2500    0.2500    0.0000
  band No.  band energies     occupation 
      1     -24.9253      2.00000
      2     -10.7629      2.00000
      3      -7.5130      2.00000
      4      -6.0634      2.00000
      5      -4.5409      2.00000
      6       2.1726      1.00000
      7       2.5781     -0.00000
      8      11.0610      0.00000
      9      14.3512      0.00000
     10      16.1081      0.00000
     11      19.2192      0.00000
     12      20.1564      0.00000


--------------------------------------------------------------------------------------------------------


 soft charge-density along one line, spin component           1
         0         1         2         3         4         5         6         7         8         9
 total charge-density along one line
 
 pseudopotential strength for first ion, spin component:           1
 13.548   0.058  -0.000   0.011  -0.000  -0.000   0.021  -0.000
  0.058   0.005  -0.000   0.001  -0.000  -0.000   0.000  -0.000
 -0.000  -0.000  -6.916  -0.000  -0.000  -0.030  -0.000  -0.000
  0.011   0.001  -0.000  -7.008  -0.000  -0.000  -0.052  -0.000
 -0.000  -0.000  -0.000  -0.000  -6.988  -0.000  -0.000  -0.043
 -0.000  -0.000  -0.030  -0.000  -0.000   0.894  -0.000  -0.000
  0.021   0.000  -0.000  -0.052  -0.000  -0.000   0.892  -0.000
 -0.000  -0.000  -0.000  -0.000  -0.043  -0.000  -0.000   0.891
 total augmentation occupancy for first ion, spin component:           1
  1.884  -0.276   0.000   0.170   0.000   0.000   0.091   0.000
 -0.276   0.747   0.000   0.675   0.000   0.000  -0.333   0.000
  0.000   0.000   1.443   0.000   0.000  -0.082   0.000   0.000
  0.170   0.675   0.000   1.334   0.000   0.000  -0.378   0.000
  0.000   0.000   0.000   0.000   0.799   0.000   0.000  -0.161
  0.000   0.000  -0.082   0.000   0.000   0.036   0.000   0.000
  0.091  -0.333   0.000  -0.378   0.000   0.000   0.174   0.000
  0.000   0.000   0.000   0.000  -0.161   0.000   0.000   0.039


------------------------ aborting loop because EDIFF is reached ----------------------------------------


    CHARGE:  cpu time    0.0026: real time    0.0026
    FORLOC:  cpu time    0.0002: real time    0.0002
    FORNL :  cpu time    0.0107: real time    0.0108
    STRESS:  cpu time    0.0286: real time    0.0287
    FORHAR:  cpu time    0.0007: real time    0.0007
    MIXING:  cpu time    0.0002: real time    0.0002
    OFIELD:  cpu time    0.0000: real time    0.0000

  FORCE on cell =-STRESS in cart. coord.  units (eV):
  Direction    XX          YY          ZZ          XY          YZ          ZX
  --------------------------------------------------------------------------------------
  Alpha Z    20.47869    20.47869    20.47869
  Ewald     -16.14170  -314.19436   -66.99295    -0.00000     0.00000    -0.00000
  Hartree   185.19729    20.00198    65.26665    -0.00000    -0.00000    -0.00000
  E(xc)     -50.28576   -50.93074   -49.74426     0.00000    -0.00000     0.00000
  Local    -335.68508   101.55934  -145.11180    -0.00000     0.00000    -0.00000
  n-local   -26.72004   -33.48707   -36.66855     0.06396    -0.00000    -0.00000
  augment     6.20171     8.10628     6.02197    -0.00000     0.00000     0.00000
  Kinetic   224.18994   248.88616   204.25296    -2.93522     0.00000     0.00000
  Fock        0.00000     0.00000     0.00000     0.00000     0.00000     0.00000
  -------------------------------------------------------------------------------------
  Total       7.23505     0.42027    -2.49729     0.00000     0.00000     0.00000
  in kB     482.99317    28.05643  -166.71260     0.00000     0.00000     0.00000
  external pressure =      114.78 kB  Pullay stress =        0.00 kB


 VOLUME and BASIS-vectors are now :
 -----------------------------------------------------------------------------
  energy-cutoff  :      600.00
  volume of cell :       24.00
      direct lattice vectors                 reciprocal lattice vectors
     2.000000000  0.000000000  0.000000000     0.500000000  0.000000000  0.000000000
     0.000000000  3.000000000  0.000000000     0.000000000  0.333333333  0.000000000
     0.000000000  0.000000000  4.000000000     0.000000000  0.000000000  0.250000000

  length of vectors
     2.000000000  3.000000000  4.000000000     0.500000000  0.333333333  0.250000000


 FORCES acting on ions
    electron-ion (+dipol)            ewald-force                    non-local-force                 convergence-correction
 -----------------------------------------------------------------------------------------------
   0.345E-13 -.237E-13 -.272E+03   -.187E-14 -.487E-15 0.311E+03   0.000E+00 0.000E+00 -.382E+02   0.444E-14 -.560E-14 0.159E-03
   0.650E-13 0.242E-12 0.254E+03   0.182E-14 0.641E-15 -.311E+03   0.000E+00 0.000E+00 0.566E+02   0.155E-14 0.178E-13 -.537E-03
 -----------------------------------------------------------------------------------------------
   0.996E-13 0.218E-12 -.184E+02   -.463E-16 0.153E-15 0.000E+00   0.000E+00 0.000E+00 0.184E+02   0.599E-14 0.122E-13 -.378E-03
 
 
 POSITION                                       TOTAL-FORCE (eV/Angst)
 -----------------------------------------------------------------------------------
      1.00000      1.50000      2.23868         0.000000      0.000000     -0.013038
      1.00000      1.50000      1.05082         0.000000      0.000000      0.013038
 -----------------------------------------------------------------------------------
    total drift:                                0.000000      0.000000      0.006433


--------------------------------------------------------------------------------------------------------



  FREE ENERGIE OF THE ION-ELECTRON SYSTEM (eV)
  ---------------------------------------------------
  free  energy   TOTEN  =       -11.18356657 eV

  energy  without entropy=      -11.15535715  energy(sigma->0) =      -11.17416343
 


--------------------------------------------------------------------------------------------------------


    POTLOK:  cpu time    0.0052: real time    0.0052


--------------------------------------------------------------------------------------------------------




--------------------------------------------------------------------------------------------------------


    WAVPRE:  cpu time    0.0518: real time    0.0541
    FEWALD:  cpu time    0.0000: real time    0.0000
    ORTHCH:  cpu time    0.0005: real time    0.0005
     LOOP+:  cpu time    0.2118: real time    0.2208


--------------------------------------- Iteration      2(   1)  ---------------------------------------


    POTLOK:  cpu time    0.0041: real time    0.0054
    SETDIJ:  cpu time    0.0019: real time    0.0019
     EDDAV:  cpu time    0.0022: real time    0.0022
       DOS:  cpu time    0.0001: real time    0.0001
    CHARGE:  cpu time    0.0022: real time    0.0022
    MIXING:  cpu time    0.0001: real time    0.0001
    --------------------------------------------
      LOOP:  cpu time    0.0107: real time    0.0120

 eigenvalue-minimisations  :    24
 total energy-change (2. order) : 0.4666521E-04  (-0.4617261E-03)
 number of electron      11.0000000 magnetization 
 augmentation part        0.7424863 magnetization 

 Broyden mixing:
  rms(total) = 0.18063E-02    rms(broyden)= 0.18026E-02
  rms(prec ) = 0.38035E-02
  weight for this iteration     100.00

 Free energy of the ion-electron system (eV)
  ---------------------------------------------------
  alpha Z        PSCENC =        20.47869267
  Ewald energy   TEWEN  =      -396.93748808
  -Hartree energ DENC   =      -270.73095448
  -exchange      EXHF   =         0.00000000
  -V(xc)+E(xc)   XCENC  =        47.98819745
  PAW double counting   =       443.11456817     -446.39722110
  entropy T*S    EENTRO =        -0.02820941
  eigenvalues    EBANDS =      -105.57139326
  atomic energy  EATOM  =       696.90028792
  Solvation  Ediel_sol  =         0.00000000
  ---------------------------------------------------
  free energy    TOTEN  =       -11.18352012 eV

  energy without entropy =      -11.15531071  energy(sigma->0) =      -11.17411699


--------------------------------------------------------------------------------------------------------




--------------------------------------- Iteration      2(   2)  ---------------------------------------


    POTLOK:  cpu time    0.0036: real time    0.0039
    SETDIJ:  cpu time    0.0019: real time    0.0019
    EDDIAG:  cpu time    0.0007: real time    0.0007
  RMM-DIIS:  cpu time    0.0016: real time    0.0016
    ORTHCH:  cpu time    0.0001: real time    0.0001
       DOS:  cpu time    0.0001: real time    0.0001
    CHARGE:  cpu time    0.0021: real time    0.0021
    MIXING:  cpu time    0.0002: real time    0.0002
    --------------------------------------------
      LOOP:  cpu time    0.0102: real time    0.0106

 eigenvalue-minimisations  :    24
 total energy-change (2. order) : 0.3106934E-05  (-0.3783058E-05)
 number of electron      11.0000000 magnetization 
 augmentation part        0.7425681 magnetization 

 Broyden mixing:
  rms(total) = 0.11559E-02    rms(broyden)= 0.11550E-02
  rms(prec ) = 0.22273E-02
  weight for this iteration     100.00

 eigenvalues of (default mixing * dielectric matrix)
  average eigenvalue GAMMA=   0.9793
  0.9793

 Free energy of the ion-electron system (eV)
  ---------------------------------------------------
  alpha Z        PSCENC =        20.47869267
  Ewald energy   TEWEN  =      -396.93748808
  -Hartree energ DENC   =      -270.75915776
  -exchange      EXHF   =         0.00000000
  -V(xc)+E(xc)   XCENC  =        47.99030071
  PAW double counting   =       443.29502420     -446.57853788
  entropy T*S    EENTRO =        -0.02820941
  eigenvalues    EBANDS =      -105.54442938
  atomic energy  EATOM  =       696.90028792
  Solvation  Ediel_sol  =         0.00000000
  ---------------------------------------------------
  free energy    TOTEN  =       -11.18351702 eV

  energy without entropy =      -11.15530760  energy(sigma->0) =      -11.17411388


--------------------------------------------------------------------------------------------------------




--------------------------------------- Iteration      2(   3)  ---------------------------------------


    POTLOK:  cpu time    0.0036: real time    0.0037
    SETDIJ:  cpu time    0.0019: real time    0.0019
    EDDIAG:  cpu time    0.0008: real time    0.0008
  RMM-DIIS:  cpu time    0.0016: real time    0.0016
    ORTHCH:  cpu time    0.0001: real time    0.0001
       DOS:  cpu time    0.0001: real time    0.0001
    CHARGE:  cpu time    0.0022: real time    0.0022
    MIXING:  cpu time    0.0002: real time    0.0002
    --------------------------------------------
      LOOP:  cpu time    0.0103: real time    0.0105

 eigenvalue-minimisations  :    21
 total energy-change (2. order) : 0.1632269E-05  (-0.2684028E-06)
 number of electron      11.0000000 magnetization 
 augmentation part        0.7424423 magnetization 

 Broyden mixing:
  rms(total) = 0.56618E-03    rms(broyden)= 0.56553E-03
  rms(prec ) = 0.12235E-02
  weight for this iteration     100.00

 eigenvalues of (default mixing * dielectric matrix)
  average eigenvalue GAMMA=   1.1698
  1.7715  0.5681

 Free energy of the ion-electron system (eV)
  ---------------------------------------------------
  alpha Z        PSCENC =        20.47869267
  Ewald energy   TEWEN  =      -396.93748808
  -Hartree energ DENC   =      -270.77553999
  -exchange      EXHF   =         0.00000000
  -V(xc)+E(xc)   XCENC  =        47.99138916
  PAW double counting   =       443.39277520     -446.67688439
  entropy T*S    EENTRO =        -0.02820941
  eigenvalues    EBANDS =      -105.52853846
  atomic energy  EATOM  =       696.90028792
  Solvation  Ediel_sol  =         0.00000000
  ---------------------------------------------------
  free energy    TOTEN  =       -11.18351538 eV

  energy without entropy =      -11.15530597  energy(sigma->0) =      -11.17411225


--------------------------------------------------------------------------------------------------------




--------------------------------------- Iteration      2(   4)  ---------------------------------------


    POTLOK:  cpu time    0.0032: real time    0.0034
    SETDIJ:  cpu time    0.0018: real time    0.0019
    EDDIAG:  cpu time    0.0007: real time    0.0007
  RMM-DIIS:  cpu time    0.0016: real time    0.0016
    ORTHCH:  cpu time    0.0001: real time    0.0001
       DOS:  cpu time    0.0001: real time    0.0001
    --------------------------------------------
      LOOP:  cpu time    0.0076: real time    0.0078

 eigenvalue-minimisations  :    14
 total energy-change (2. order) : 0.4773499E-06  (-0.1114734E-06)
 number of electron      11.0000000 magnetization 
 augmentation part        0.7424423 magnetization 

 Free energy of the ion-electron system (eV)
  ---------------------------------------------------
  alpha Z        PSCENC =        20.47869267
  Ewald energy   TEWEN  =      -396.93748808
  -Hartree energ DENC   =      -270.78477961
  -exchange      EXHF   =         0.00000000
  -V(xc)+E(xc)   XCENC  =        47.99211889
  PAW double counting   =       443.49027795     -446.77484722
  entropy T*S    EENTRO =        -0.02820941
  eigenvalues    EBANDS =      -105.51956801
  atomic energy  EATOM  =       696.90028792
  Solvation  Ediel_sol  =         0.00000000
  ---------------------------------------------------
  free energy    TOTEN  =       -11.18351491 eV

  energy without entropy =      -11.15530549  energy(sigma->0) =      -11.17411177


--------------------------------------------------------------------------------------------------------




 average (electrostatic) potential at core
  the test charge radii are     0.7089  0.7215
  (the norm of the test charge is              1.0000)
       1 -70.7305       2 -77.6829
 
 
 
 E-fermi :   2.1831     XC(G=0):  -8.9729     alpha+bet : -6.7415


 k-point     1 :       0.2500    0.2500    0.0000
  band No.  band energies     occupation 
      1     -24.9506      2.00000
      2     -10.7566      2.00000
      3      -7.5228      2.00000
      4      -6.0759      2.00000
      5      -4.5455      2.00000
      6       2.1831      1.00000
      7       2.5888     -0.00000
      8      11.0571      0.00000
      9      14.3624      0.00000
     10      16.1448      0.00000
     11      19.2193      0.00000
     12      20.1563      0.00000


--------------------------------------------------------------------------------------------------------


 soft charge-density along one line, spin component           1
         0         1         2         3         4         5         6         7         8         9
 total charge-density along one line
 
 pseudopotential strength for first ion, spin component:           1
 13.548   0.058  -0.000   0.011  -0.000  -0.000   0.021  -0.000
  0.058   0.005  -0.000   0.001  -0.000  -0.000   0.000  -0.000
 -0.000  -0.000  -6.916  -0.000  -0.000  -0.030  -0.000  -0.000
  0.011   0.001  -0.000  -7.008  -0.000  -0.000  -0.052  -0.000
 -0.000  -0.000  -0.000  -0.000  -6.988  -0.000  -0.000  -0.043
 -0.000  -0.000  -0.030  -0.000  -0.000   0.894  -0.000  -0.000
  0.021   0.000  -0.000  -0.052  -0.000  -0.000   0.892  -0.000
 -0.000  -0.000  -0.000  -0.000  -0.043  -0.000  -0.000   0.891
 total augmentation occupancy for first ion, spin component:           1
  1.884  -0.278   0.000   0.169   0.000   0.000   0.091   0.000
 -0.278   0.751   0.000   0.677   0.000   0.000  -0.335   0.000
  0.000   0.000   1.443   0.000   0.000  -0.082   0.000   0.000
  0.169   0.677   0.000   1.337   0.000   0.000  -0.378   0.000
  0.000   0.000   0.000   0.000   0.800   0.000   0.000  -0.161
  0.000   0.000  -0.082   0.000   0.000   0.036   0.000   0.000
  0.091  -0.335   0.000  -0.378   0.000   0.000   0.174   0.000
  0.000   0.000   0.000   0.000  -0.161   0.000   0.000   0.039


------------------------ aborting loop because EDIFF is reached ----------------------------------------


    CHARGE:  cpu time    0.0025: real time    0.0025
    FORLOC:  cpu time    0.0003: real time    0.0003
    FORNL :  cpu time    0.0097: real time    0.0097
    STRESS:  cpu time    0.0296: real time    0.0297
    FORHAR:  cpu time    0.0007: real time    0.0007
    MIXING:  cpu time    0.0002: real time    0.0002
    OFIELD:  cpu time    0.0000: real time    0.0000

  FORCE on cell =-STRESS in cart. coord.  units (eV):
  Direction    XX          YY          ZZ          XY          YZ          ZX
  --------------------------------------------------------------------------------------
  Alpha Z    20.47869    20.47869    20.47869
  Ewald     -15.95522  -314.12428   -66.85816     0.00000    -0.00000    -0.00000
  Hartree   185.43303    20.16560    65.17954    -0.00000    -0.00000    -0.00000
  E(xc)     -50.29640   -50.94100   -49.75403    -0.00000    -0.00000     0.00000
  Local    -336.12710   101.30146  -145.04661     0.00000    -0.00000    -0.00000
  n-local   -26.73171   -33.49969   -36.71011     0.06207    -0.00000     0.00000
  augment     6.20482     8.11058     6.02314    -0.00000     0.00000     0.00000
  Kinetic   224.22470   248.92814   204.33446    -2.92588     0.00000    -0.00000
  Fock        0.00000     0.00000     0.00000     0.00000     0.00000     0.00000
  -------------------------------------------------------------------------------------
  Total       7.23081     0.41951    -2.35307     0.00000     0.00000     0.00000
  in kB     482.71031    28.00517  -157.08485     0.00000     0.00000     0.00000
  external pressure =      117.88 kB  Pullay stress =        0.00 kB


 VOLUME and BASIS-vectors are now :
 -----------------------------------------------------------------------------
  energy-cutoff  :      600.00
  volume of cell :       24.00
      direct lattice vectors                 reciprocal lattice vectors
     2.000000000  0.000000000  0.000000000     0.500000000  0.000000000  0.000000000
     0.000000000  3.000000000  0.000000000     0.000000000  0.333333333  0.000000000
     0.000000000  0.000000000  4.000000000     0.000000000  0.000000000  0.250000000

  length of vectors
     2.000000000  3.000000000  4.000000000     0.500000000  0.333333333  0.250000000


 FORCES acting on ions
    electron-ion (+dipol)            ewald-force                    non-local-force                 convergence-correction
 -----------------------------------------------------------------------------------------------
   0.345E-13 0.497E-13 -.273E+03   0.243E-14 0.108E-15 0.311E+03   0.000E+00 0.000E+00 -.383E+02   -.209E-14 -.721E-14 -.245E-02
   0.603E-13 0.175E-12 0.255E+03   -.248E-14 0.458E-16 -.311E+03   0.000E+00 0.000E+00 0.568E+02   -.598E-14 0.120E-13 0.196E-02
 -----------------------------------------------------------------------------------------------
   0.948E-13 0.225E-12 -.184E+02   -.463E-16 0.153E-15 0.000E+00   0.000E+00 0.000E+00 0.184E+02   -.806E-14 0.477E-14 -.495E-03
 
 
 POSITION                                       TOTAL-FORCE (eV/Angst)
 -----------------------------------------------------------------------------------
      1.00000      1.50000      2.23805         0.000000      0.000000      0.096504
      1.00000      1.50000      1.05145         0.000000      0.000000     -0.096504
 -----------------------------------------------------------------------------------
    total drift:                                0.000000      0.000000      0.006669


--------------------------------------------------------------------------------------------------------



  FREE ENERGIE OF THE ION-ELECTRON SYSTEM (eV)
  ---------------------------------------------------
  free  energy   TOTEN  =       -11.18351491 eV

  energy  without entropy=      -11.15530549  energy(sigma->0) =      -11.17411177
 
 d Force =-0.5250047E-04[-0.121E-03, 0.164E-04]  d Energy =-0.5166162E-04-0.839E-06
 d Force =-0.3913531E+00[-0.392E+00,-0.391E+00]  d Ewald  =-0.3913529E+00-0.192E-06


--------------------------------------------------------------------------------------------------------


    POTLOK:  cpu time    0.0052: real time    0.0052


--------------------------------------------------------------------------------------------------------


 Steepest descent step on ions:
 trial-energy change:    0.000052  1 .order    0.000053   -0.000016    0.000121
  (g-gl).g = 0.164E-04      g.g   = 0.164E-04  gl.gl    = 0.000E+00
 g(Force)  = 0.164E-04   g(Stress)= 0.000E+00 ortho     = 0.000E+00
 gamma     =   0.00000
 trial     =   1.00000
 opt step  =   0.11903  (harmonic =   0.11903) maximal distance =0.00007487
 next E    =   -11.183568   (d E  =  -0.00000)


--------------------------------------------------------------------------------------------------------


    WAVPRE:  cpu time    0.0010: real time    0.0020
    FEWALD:  cpu time    0.0000: real time    0.0000
    ORTHCH:  cpu time    0.0005: real time    0.0005
     LOOP+:  cpu time    0.0924: real time    0.0973


--------------------------------------- Iteration      3(   1)  ---------------------------------------


    POTLOK:  cpu time    0.0039: real time    0.0056
    SETDIJ:  cpu time    0.0019: real time    0.0019
     EDDAV:  cpu time    0.0022: real time    0.0023
       DOS:  cpu time    0.0001: real time    0.0001
    CHARGE:  cpu time    0.0022: real time    0.0022
    MIXING:  cpu time    0.0001: real time    0.0001
    --------------------------------------------
      LOOP:  cpu time    0.0105: real time    0.0123

 eigenvalue-minimisations  :    24
 total energy-change (2. order) :-0.5707290E-04  (-0.3574198E-03)
 number of electron      11.0000000 magnetization 
 augmentation part        0.7417293 magnetization 

 Broyden mixing:
  rms(total) = 0.15692E-02    rms(broyden)= 0.15658E-02
  rms(prec ) = 0.33390E-02
  weight for this iteration     100.00

 Free energy of the ion-electron system (eV)
  ---------------------------------------------------
  alpha Z        PSCENC =        20.47869267
  Ewald energy   TEWEN  =      -397.28230925
  -Hartree energ DENC   =      -270.54777843
  -exchange      EXHF   =         0.00000000
  -V(xc)+E(xc)   XCENC  =        47.98647172
  PAW double counting   =       443.50514715     -446.78971073
  entropy T*S    EENTRO =        -0.02820942
  eigenvalues    EBANDS =      -105.40616408
  atomic energy  EATOM  =       696.90028792
  Solvation  Ediel_sol  =         0.00000000
  ---------------------------------------------------
  free energy    TOTEN  =       -11.18357246 eV

  energy without entropy =      -11.15536304  energy(sigma->0) =      -11.17416932


--------------------------------------------------------------------------------------------------------




--------------------------------------- Iteration      3(   2)  ---------------------------------------


    POTLOK:  cpu time    0.0036: real time    0.0037
    SETDIJ:  cpu time    0.0019: real time    0.0019
    EDDIAG:  cpu time    0.0008: real time    0.0008
  RMM-DIIS:  cpu time    0.0016: real time    0.0016
    ORTHCH:  cpu time    0.0001: real time    0.0001
       DOS:  cpu time    0.0001: real time    0.0001
    CHARGE:  cpu time    0.0023: real time    0.0023
    MIXING:  cpu time    0.0002: real time    0.0002
    --------------------------------------------
      LOOP:  cpu time    0.0105: real time    0.0107

 eigenvalue-minimisations  :    24
 total energy-change (2. order) : 0.2791694E-05  (-0.2884371E-05)
 number of electron      11.0000000 magnetization 
 augmentation part        0.7416515 magnetization 

 Broyden mixing:
  rms(total) = 0.10106E-02    rms(broyden)= 0.10098E-02
  rms(prec ) = 0.19690E-02
  weight for this iteration     100.00

 eigenvalues of (default mixing * dielectric matrix)
  average eigenvalue GAMMA=   0.9404
  0.9404

 Free energy of the ion-electron system (eV)
  ---------------------------------------------------
  alpha Z        PSCENC =        20.47869267
  Ewald energy   TEWEN  =      -397.28230925
  -Hartree energ DENC   =      -270.52293687
  -exchange      EXHF   =         0.00000000
  -V(xc)+E(xc)   XCENC  =        47.98462692
  PAW double counting   =       443.35547824     -446.63932494
  entropy T*S    EENTRO =        -0.02820941
  eigenvalues    EBANDS =      -105.42987494
  atomic energy  EATOM  =       696.90028792
  Solvation  Ediel_sol  =         0.00000000
  ---------------------------------------------------
  free energy    TOTEN  =       -11.18356966 eV

  energy without entropy =      -11.15536025  energy(sigma->0) =      -11.17416653


--------------------------------------------------------------------------------------------------------




--------------------------------------- Iteration      3(   3)  ---------------------------------------


    POTLOK:  cpu time    0.0031: real time    0.0032
    SETDIJ:  cpu time    0.0018: real time    0.0019
    EDDIAG:  cpu time    0.0008: real time    0.0008
  RMM-DIIS:  cpu time    0.0015: real time    0.0015
    ORTHCH:  cpu time    0.0001: real time    0.0001
       DOS:  cpu time    0.0001: real time    0.0001
    CHARGE:  cpu time    0.0021: real time    0.0021
    MIXING:  cpu time    0.0002: real time    0.0002
    --------------------------------------------
      LOOP:  cpu time    0.0097: real time    0.0098

 eigenvalue-minimisations  :    18
 total energy-change (2. order) : 0.1403621E-05  (-0.1956157E-06)
 number of electron      11.0000000 magnetization 
 augmentation part        0.7417600 magnetization 

 Broyden mixing:
  rms(total) = 0.48586E-03    rms(broyden)= 0.48531E-03
  rms(prec ) = 0.10510E-02
  weight for this iteration     100.00

 eigenvalues of (default mixing * dielectric matrix)
  average eigenvalue GAMMA=   1.1651
  1.7618  0.5683

 Free energy of the ion-electron system (eV)
  ---------------------------------------------------
  alpha Z        PSCENC =        20.47869267
  Ewald energy   TEWEN  =      -397.28230925
  -Hartree energ DENC   =      -270.50856381
  -exchange      EXHF   =         0.00000000
  -V(xc)+E(xc)   XCENC  =        47.98368054
  PAW double counting   =       443.27586674     -446.55921355
  entropy T*S    EENTRO =        -0.02820941
  eigenvalues    EBANDS =      -105.44380011
  atomic energy  EATOM  =       696.90028792
  Solvation  Ediel_sol  =         0.00000000
  ---------------------------------------------------
  free energy    TOTEN  =       -11.18356826 eV

  energy without entropy =      -11.15535885  energy(sigma->0) =      -11.17416512


--------------------------------------------------------------------------------------------------------




--------------------------------------- Iteration      3(   4)  ---------------------------------------


    POTLOK:  cpu time    0.0031: real time    0.0032
    SETDIJ:  cpu time    0.0018: real time    0.0018
    EDDIAG:  cpu time    0.0007: real time    0.0007
  RMM-DIIS:  cpu time    0.0015: real time    0.0015
    ORTHCH:  cpu time    0.0001: real time    0.0001
       DOS:  cpu time    0.0001: real time    0.0001
    --------------------------------------------
      LOOP:  cpu time    0.0073: real time    0.0075

 eigenvalue-minimisations  :    13
 total energy-change (2. order) : 0.5485426E-06  (-0.9714369E-07)
 number of electron      11.0000000 magnetization 
 augmentation part        0.7417600 magnetization 

 Free energy of the ion-electron system (eV)
  ---------------------------------------------------
  alpha Z        PSCENC =        20.47869267
  Ewald energy   TEWEN  =      -397.28230925
  -Hartree energ DENC   =      -270.49977008
  -exchange      EXHF   =         0.00000000
  -V(xc)+E(xc)   XCENC  =        47.98300058
  PAW double counting   =       443.19344525     -446.47638485
  entropy T*S    EENTRO =        -0.02820941
  eigenvalues    EBANDS =      -105.45232053
  atomic energy  EATOM  =       696.90028792
  Solvation  Ediel_sol  =         0.00000000
  ---------------------------------------------------
  free energy    TOTEN  =       -11.18356771 eV

  energy without entropy =      -11.15535830  energy(sigma->0) =      -11.17416457


--------------------------------------------------------------------------------------------------------




 average (electrostatic) potential at core
  the test charge radii are     0.7089  0.7215
  (the norm of the test charge is              1.0000)
       1 -70.7324       2 -77.6790
 
 
 
 E-fermi :   2.1734     XC(G=0):  -8.9746     alpha+bet : -6.7415


 k-point     1 :       0.2500    0.2500    0.0000
  band No.  band energies     occupation 
      1     -24.9287      2.00000
      2     -10.7625      2.00000
      3      -7.5145      2.00000
      4      -6.0653      2.00000
      5      -4.5418      2.00000
      6       2.1734      1.00000
      7       2.5789     -0.00000
      8      11.0605      0.00000
      9      14.3525      0.00000
     10      16.1122      0.00000
     11      19.2193      0.00000
     12      20.1563      0.00000


--------------------------------------------------------------------------------------------------------


 soft charge-density along one line, spin component           1
         0         1         2         3         4         5         6         7         8         9
 total charge-density along one line
 
 pseudopotential strength for first ion, spin component:           1
 13.548   0.058  -0.000   0.011  -0.000  -0.000   0.021  -0.000
  0.058   0.005  -0.000   0.001  -0.000  -0.000   0.000  -0.000
 -0.000  -0.000  -6.916  -0.000  -0.000  -0.030  -0.000  -0.000
  0.011   0.001  -0.000  -7.008  -0.000  -0.000  -0.052  -0.000
 -0.000  -0.000  -0.000  -0.000  -6.988  -0.000  -0.000  -0.043
 -0.000  -0.000  -0.030  -0.000  -0.000   0.894  -0.000  -0.000
  0.021   0.000  -0.000  -0.052  -0.000  -0.000   0.892  -0.000
 -0.000  -0.000  -0.000  -0.000  -0.043  -0.000  -0.000   0.891
 total augmentation occupancy for first ion, spin component:           1
  1.884  -0.277   0.000   0.170   0.000   0.000   0.091   0.000
 -0.277   0.748   0.000   0.675   0.000   0.000  -0.334   0.000
  0.000   0.000   1.443   0.000   0.000  -0.082   0.000   0.000
  0.170   0.675   0.000   1.335   0.000   0.000  -0.378   0.000
  0.000   0.000   0.000   0.000   0.799   0.000   0.000  -0.161
  0.000   0.000  -0.082   0.000   0.000   0.036   0.000   0.000
  0.091  -0.334   0.000  -0.378   0.000   0.000   0.174   0.000
  0.000   0.000   0.000   0.000  -0.161   0.000   0.000   0.039


------------------------ aborting loop because EDIFF is reached ----------------------------------------


    CHARGE:  cpu time    0.0022: real time    0.0022
    FORLOC:  cpu time    0.0002: real time    0.0002
    FORNL :  cpu time    0.0095: real time    0.0096
    STRESS:  cpu time    0.0280: real time    0.0282
    FORHAR:  cpu time    0.0007: real time    0.0007
    MIXING:  cpu time    0.0002: real time    0.0002
    OFIELD:  cpu time    0.0000: real time    0.0000

  FORCE on cell =-STRESS in cart. coord.  units (eV):
  Direction    XX          YY          ZZ          XY          YZ          ZX
  --------------------------------------------------------------------------------------
  Alpha Z    20.47869    20.47869    20.47869
  Ewald     -16.11951  -314.18602   -66.97695    -0.00000     0.00000    -0.00000
  Hartree   185.22734    20.02215    65.25613    -0.00000    -0.00000    -0.00000
  E(xc)     -50.28671   -50.93164   -49.74510     0.00000     0.00000     0.00000
  Local    -335.73990   101.52805  -145.10339     0.00000     0.00000    -0.00000
  n-local   -26.72151   -33.48875   -36.67388     0.06377    -0.00000    -0.00000
  augment     6.20216     8.10697     6.02232    -0.00000     0.00000     0.00000
  Kinetic   224.19410   248.89205   204.26413    -2.93390     0.00000     0.00000
  Fock        0.00000     0.00000     0.00000     0.00000     0.00000     0.00000
  -------------------------------------------------------------------------------------
  Total       7.23466     0.42149    -2.47804     0.00000     0.00000     0.00000
  in kB     482.96678    28.13774  -165.42733     0.00000     0.00000     0.00000
  external pressure =      115.23 kB  Pullay stress =        0.00 kB


 VOLUME and BASIS-vectors are now :
 -----------------------------------------------------------------------------
  energy-cutoff  :      600.00
  volume of cell :       24.00
      direct lattice vectors                 reciprocal lattice vectors
     2.000000000  0.000000000  0.000000000     0.500000000  0.000000000  0.000000000
     0.000000000  3.000000000  0.000000000     0.000000000  0.333333333  0.000000000
     0.000000000  0.000000000  4.000000000     0.000000000  0.000000000  0.250000000

  length of vectors
     2.000000000  3.000000000  4.000000000     0.500000000  0.333333333  0.250000000


 FORCES acting on ions
    electron-ion (+dipol)            ewald-force                    non-local-force                 convergence-correction
 -----------------------------------------------------------------------------------------------
   0.374E-13 0.734E-13 -.273E+03   -.121E-14 -.232E-15 0.311E+03   0.000E+00 0.000E+00 -.383E+02   0.279E-15 0.650E-14 0.224E-02
   0.567E-13 0.450E-13 0.254E+03   0.116E-14 0.385E-15 -.311E+03   0.000E+00 0.000E+00 0.567E+02   -.467E-14 0.116E-13 -.150E-02
 -----------------------------------------------------------------------------------------------
   0.941E-13 0.118E-12 -.184E+02   -.463E-16 0.153E-15 0.000E+00   0.000E+00 0.000E+00 0.184E+02   -.439E-14 0.181E-13 0.733E-03
 
 
 POSITION                                       TOTAL-FORCE (eV/Angst)
 -----------------------------------------------------------------------------------
      1.00000      1.50000      2.23861         0.000000      0.000000     -0.000494
      1.00000      1.50000      1.05090         0.000000      0.000000      0.000494
 -----------------------------------------------------------------------------------
    total drift:                                0.000000      0.000000      0.005970


--------------------------------------------------------------------------------------------------------



  FREE ENERGIE OF THE ION-ELECTRON SYSTEM (eV)
  ---------------------------------------------------
  free  energy   TOTEN  =       -11.18356771 eV

  energy  without entropy=      -11.15535830  energy(sigma->0) =      -11.17416457
 
 d Force = 0.5320284E-04[-0.548E-06, 0.107E-03]  d Energy = 0.5280639E-04 0.396E-06
 d Force = 0.3448213E+00[ 0.344E+00, 0.345E+00]  d Ewald  = 0.3448212E+00 0.131E-06


--------------------------------------------------------------------------------------------------------


    POTLOK:  cpu time    0.0050: real time    0.0050


--------------------------------------------------------------------------------------------------------




--------------------------------------------------------------------------------------------------------


  
 reached required accuracy - stopping structural energy minimisation
     LOOP+:  cpu time    0.0879: real time    0.0929
    4ORBIT:  cpu time    0.0000: real time    0.0000

 total amount of memory used by VASP MPI-rank0    33187. kBytes
=======================================================================

   base      :      30000. kBytes
   nonlr-proj:        764. kBytes
   fftplans  :       1379. kBytes
   grid      :       1025. kBytes
   one-center:          6. kBytes
   wavefun   :         13. kBytes
 
  
  
 General timing and accounting informations for this job:
 ========================================================
  
                  Total CPU time used (sec):        0.979
                            User time (sec):        0.824
                          System time (sec):        0.155
                         Elapsed time (sec):        1.702
  
                   Maximum memory used (kb):      284556.
                   Average memory used (kb):           0.
  
                          Minor page faults:        12973
                          Major page faults:            0
                 Voluntary context switches:         3669
