<preamble>

<basis_specs>
===============================================================================
H                    Z=   1    Mass=  1.0079        Charge= 0.17977+309
Lmxo=1 Lmxkb= 1    BasisType=split      Semic=F
L=0  Nsemic=0  Cnfigmx=1
          i=1  nzeta=2  polorb=1  (1s)  (to be polarized perturbatively)
            splnorm:   0.15000    
               vcte:    40.000    
               rinn:    4.7141    
               qcoe:    0.0000    
               qyuk:    0.0000    
               qwid:   0.10000E-01
                rcs:    5.2327      3.5289    
            lambdas:    1.0000      1.0000    
L=1  Nsemic=0  Cnfigmx=2
          i=1  nzeta=0  polorb=0  (2p)  (perturbative polarization orbital) (from 1s)
-------------------------------------------------------------------------------
L=0  Nkbl=1  erefs: 0.17977+309
L=1  Nkbl=1  erefs: 0.17977+309
===============================================================================
</basis_specs>

<pseudopotential_header>
 H  pb nrl nc  
 ONCVPSP-3.2017-10-31Hamann's oncvpsp                        
 1s 1.00  r= 1.01/2p 0.00  r= 0.71/                                     1s:
</pseudopotential_header>
</preamble>
H                             # Symbol
H                             # Label
    1                         # Atomic number
     1.00000000000                             # Valence charge
     1.00790000000        # Mass 
     2.27454303330        # Self energy 
   1   3                      # Lmax for basis, no. of nl orbitals 
   1   3                      # Lmax for projectors, no. of nl KB projectors
# PAOs:__________________________
  0  1  1  0  1.000000   #orbital l, n, z, is_polarized, population
 500    0.1048630110469081E-01     5.232664251240713     # npts, delta, cutoff
     0.000000000000000         1.601788822159484    
    0.1048630110469081E-01     1.601547461953661    
    0.2097260220938162E-01     1.600831892794587    
    0.3145890331407242E-01     1.599640995497706    
    0.4194520441876323E-01     1.597977330458561    
    0.5243150552345404E-01     1.595844456444107    
    0.6291780662814485E-01     1.593246904076688    
    0.7340410773283565E-01     1.590190142873112    
    0.8389040883752646E-01     1.586680541989693    
    0.9437670994221728E-01     1.582725325193930    
    0.1048630110469081         1.578332520689297    
    0.1153493121515989         1.573510906490906    
    0.1258356132562897         1.568269952105275    
    0.1363219143609805         1.562619757308621    
    0.1468082154656713         1.556570988845616    
    0.1572945165703621         1.550134815883378    
    0.1677808176750529         1.543322845054361    
    0.1782671187797437         1.536147055906246    
    0.1887534198844346         1.528619737547634    
    0.1992397209891253         1.520753427235990    
    0.2097260220938162         1.512560851599326    
    0.2202123231985070         1.504054871117542    
    0.2306986243031978         1.495248428413209    
    0.2411849254078886         1.486154500817585    
    0.2516712265125794         1.476786057586686    
    0.2621575276172702         1.467156022046207    
    0.2726438287219610         1.457277238844958    
    0.2831301298266518         1.447162446396039    
    0.2936164309313426         1.436824254484897    
    0.3041027320360334         1.426275126926225    
    0.3145890331407242         1.415527369058234    
    0.3250753342454151         1.404593119775695    
    0.3355616353501059         1.393484347723268    
    0.3460479364547966         1.382212851200536    
    0.3565342375594875         1.370790261268788    
    0.3670205386641783         1.359228047501575    
    0.3775068397688691         1.347537525783341    
    0.3879931408735599         1.335729867536442    
    0.3984794419782507         1.323816109746170    
    0.4089657430829415         1.311807165154675    
    0.4194520441876323         1.299713832010641    
    0.4299383452923231         1.287546802788829    
    0.4404246463970140         1.275316671333207    
    0.4509109475017047         1.263033937928608    
    0.4613972486063955         1.250709011866301    
    0.4718835497110864         1.238352211138541    
    0.4823698508157772         1.225973758973821    
    0.4928561519204680         1.213583777007248    
    0.5033424530251588         1.201192274967165    
    0.5138287541298496         1.188809136845370    
    0.5243150552345404         1.176444104016199    
    0.5348013563392312         1.164106753445326    
    0.5452876574439220         1.151806475225551    
    0.5557739585486128         1.139552445757217    
    0.5662602596533036         1.127353598939729    
    0.5767465607579945         1.115218595447419    
    0.5872328618626852         1.103155790594725    
    0.5977191629673760         1.091173201347759    
    0.6082054640720669         1.079278473076323    
    0.6186917651767577         1.067478846664434    
    0.6291780662814485         1.055781126608347    
    0.6396643673861393         1.044191650732074    
    0.6501506684908301         1.032716262135078    
    0.6606369695955209         1.021360283963120    
    0.6711232707002117         1.010128497554436    
    0.6816095718049026        0.9990251244656043    
    0.6920958729095933        0.9880538128226093    
    0.7025821740142841        0.9772176283745466    
    0.7130684751189750        0.9665190505519586    
    0.7235547762236657        0.9559599737496145    
    0.7340410773283566        0.9455417139666251    
    0.7445273784330474        0.9352650208466676    
    0.7550136795377382        0.9251300950694259    
    0.7654999806424290        0.9151366109527843    
    0.7759862817471198        0.9052837440357873    
    0.7864725828518107        0.8955702033262756    
    0.7969588839565014        0.8859942678162549    
    0.8074451850611922        0.8765538267936824    
    0.8179314861658831        0.8672464234132736    
    0.8284177872705738        0.8580693009317443    
    0.8389040883752646        0.8490194509661821    
    0.8493903894799555        0.8400936630985834    
    0.8598766905846462        0.8312885751255416    
    0.8703629916893371        0.8226007232403223    
    0.8808492927940279        0.8140265914349560    
    0.8913355938987186        0.8055626594228150    
    0.9018218950034095        0.7972054484068454    
    0.9123081961081003        0.7889515640548985    
    0.9227944972127911        0.7807977360907101    
    0.9332807983174819        0.7727408539660947    
    0.9437670994221727        0.7647779981457361    
    0.9542534005268636        0.7569064666095243    
    0.9647397016315543        0.7491237962571953    
    0.9752260027362452        0.7414277789837315    
    0.9857123038409360        0.7338164724178494    
    0.9961986049456267        0.7262882040837260    
     1.006684906050318        0.7188415734137834    
     1.017171207155008        0.7114754427010305    
     1.027657508259699        0.7041888435491309    
     1.038143809364390        0.6969808569194176    
     1.048630110469081        0.6898505690703376    
     1.059116411573772        0.6827970784901054    
     1.069602712678462        0.6758194947846191    
     1.080089013783153        0.6689169381799819    
     1.090575314887844        0.6620885396349229    
     1.101061615992535        0.6553334406723013    
     1.111547917097226        0.6486507932763104    
     1.122034218201917        0.6420397597802284    
     1.132520519306607        0.6354995127532947    
     1.143006820411298        0.6290292348881823    
     1.153493121515989        0.6226281188885865    
     1.163979422620680        0.6162953673569322    
     1.174465723725370        0.6100301926822405    
     1.184952024830061        0.6038318169283637    
     1.195438325934752        0.5976994717224990    
     1.205924627039443        0.5916323981441276    
     1.216410928144134        0.5856298466144052    
     1.226897229248824        0.5796910767859430    
     1.237383530353515        0.5738153574331613    
     1.247869831458206        0.5680019663432141    
     1.258356132562897        0.5622501902075241    
     1.268842433667588        0.5565593245138460    
     1.279328734772279        0.5509286734390615    
     1.289815035876969        0.5453575497426850    
     1.300301336981660        0.5398452746610607    
     1.310787638086351        0.5343911778022735    
     1.321273939191042        0.5289945970418410    
     1.331760240295733        0.5236548784192605    
     1.342246541400423        0.5183713760352925    
     1.352732842505114        0.5131434519500794    
     1.363219143609805        0.5079704760821738    
     1.373705444714496        0.5028518261083801    
     1.384191745819187        0.4977868873644793    
     1.394678046923878        0.4927750527468847    
     1.405164348028568        0.4878157226151862    
     1.415650649133259        0.4829083046956145    
     1.426136950237950        0.4780522139854299    
     1.436623251342641        0.4732468726582642    
     1.447109552447331        0.4684917099704268    
     1.457595853552022        0.4637861621681445    
     1.468082154656713        0.4591296723957692    
     1.478568455761404        0.4545216906049603    
     1.489054756866095        0.4499616734648519    
     1.499541057970786        0.4454490842732174    
     1.510027359075476        0.4409833928685701    
     1.520513660180167        0.4365640755432675    
     1.530999961284858        0.4321906149576425    
     1.541486262389549        0.4278625000551040    
     1.551972563494240        0.4235792259782123    
     1.562458864598930        0.4193402939857673    
     1.572945165703621        0.4151452113708891    
     1.583431466808312        0.4109934913800952    
     1.593917767913003        0.4068846531333721    
     1.604404069017694        0.4028182215452248    
     1.614890370122384        0.3987937272467253    
     1.625376671227075        0.3948107065085534    
     1.635862972331766        0.3908687011650117    
     1.646349273436457        0.3869672585390236    
     1.656835574541148        0.3831059313681150    
     1.667321875645839        0.3792842777313791    
     1.677808176750529        0.3755018609773935    
     1.688294477855220        0.3717582496531048    
     1.698780778959911        0.3680530174336821    
     1.709267080064602        0.3643857430533238    
     1.719753381169292        0.3607560102370143    
     1.730239682273983        0.3571634076332284    
     1.740725983378674        0.3536075287475639    
     1.751212284483365        0.3500879718773089    
     1.761698585588056        0.3466043400469456    
     1.772184886692747        0.3431562409445679    
     1.782671187797437        0.3397432868592012    
     1.793157488902128        0.3363650946190290    
     1.803643790006819        0.3330212855305286    
     1.814130091111510        0.3297114853184878    
     1.824616392216201        0.3264353240668995    
     1.835102693320891        0.3231924361607327    
     1.845588994425582        0.3199824602285693    
     1.856075295530273        0.3168050390860999    
     1.866561596634964        0.3136598196804595    
     1.877047897739655        0.3105464530354070    
     1.887534198844345        0.3074645941973353    
     1.898020499949036        0.3044139021821011    
     1.908506801053727        0.3013940399226678    
     1.918993102158418        0.2984046742175503    
     1.929479403263109        0.2954454756800503    
     1.939965704367800        0.2925161186882806    
     1.950452005472490        0.2896162813359580    
     1.960938306577181        0.2867456453839595    
     1.971424607681872        0.2839038962126366    
     1.981910908786563        0.2810907227748738    
     1.992397209891253        0.2783058175498782    
     2.002883510995944        0.2755488764976949    
     2.013369812100635        0.2728195990144366    
     2.023856113205326        0.2701176878882146    
     2.034342414310017        0.2674428492557681    
     2.044828715414708        0.2647947925597723    
     2.055315016519399        0.2621732305068222    
     2.065801317624089        0.2595778790260784    
     2.076287618728780        0.2570084572285656    
     2.086773919833471        0.2544646873671139    
     2.097260220938161        0.2519462947969296    
     2.107746522042853        0.2494530079367900    
     2.118232823147543        0.2469845582308509    
     2.128719124252234        0.2445406801110530    
     2.139205425356925        0.2421211109601176    
     2.149691726461616        0.2397255910751287    
     2.160178027566306        0.2373538636316809    
     2.170664328670997        0.2350056746485908    
     2.181150629775688        0.2326807729531579    
     2.191636930880379        0.2303789101469664    
     2.202123231985070        0.2280998405722194    
     2.212609533089760        0.2258433212785928    
     2.223095834194451        0.2236091119906024    
     2.233582135299142        0.2213969750754705    
     2.244068436403833        0.2192066755114874    
     2.254554737508524        0.2170379808568553    
     2.265041038613214        0.2148906612190065    
     2.275527339717905        0.2127644892243851    
     2.286013640822596        0.2106592399886858    
     2.296499941927287        0.2085746910875366    
     2.306986243031978        0.2065106225276239    
     2.317472544136669        0.2044668167182423    
     2.327958845241359        0.2024430584432683    
     2.338445146346050        0.2004391348335446    
     2.348931447450741        0.1984548353396654    
     2.359417748555432        0.1964899517051626    
     2.369904049660123        0.1945442779400775    
     2.380390350764813        0.1926176102949089    
     2.390876651869504        0.1907097472349389    
     2.401362952974195        0.1888204894149169    
     2.411849254078886        0.1869496396541034    
     2.422335555183577        0.1850970029116650    
     2.432821856288268        0.1832623862624052    
     2.443308157392958        0.1814455988728372    
     2.453794458497649        0.1796464519775829    
     2.464280759602340        0.1778647588560902    
     2.474767060707031        0.1761003348096689    
     2.485253361811722        0.1743529971388319    
     2.495739662916412        0.1726225651209372    
     2.506225964021103        0.1709088599881318    
     2.516712265125794        0.1692117049055782    
     2.527198566230485        0.1675309249499696    
     2.537684867335176        0.1658663470883204    
     2.548171168439866        0.1642178001570278    
     2.558657469544557        0.1625851148412023    
     2.569143770649248        0.1609681236542613    
     2.579630071753939        0.1593666609177736    
     2.590116372858629        0.1577805627415587    
     2.600602673963321        0.1562096670040346    
     2.611088975068011        0.1546538133327964    
     2.621575276172702        0.1531128430854442    
     2.632061577277393        0.1515865993306361    
     2.642547878382083        0.1500749268293675    
     2.653034179486774        0.1485776720164773    
     2.663520480591465        0.1470946829823730    
     2.674006781696156        0.1456258094549639    
     2.684493082800847        0.1441709027818142    
     2.694979383905538        0.1427298159124988    
     2.705465685010228        0.1413024033811571    
     2.715951986114920        0.1398885212892560    
     2.726438287219610        0.1384880272885433    
     2.736924588324301        0.1371007805641898    
     2.747410889428992        0.1357266418181276    
     2.757897190533682        0.1343654732525738    
     2.768383491638373        0.1330171385537280    
     2.778869792743064        0.1316815028756605    
     2.789356093847755        0.1303584328243707    
     2.799842394952446        0.1290477964420189    
     2.810328696057137        0.1277494631913300    
     2.820814997161827        0.1264633039401686    
     2.831301298266518        0.1251891909462736    
     2.841787599371209        0.1239269978421572    
     2.852273900475900        0.1226765996201697    
     2.862760201580591        0.1214378726177176    
     2.873246502685281        0.1202106945026336    
     2.883732803789972        0.1189949442587099    
     2.894219104894663        0.1177905021713758    
     2.904705405999354        0.1165972498135188    
     2.915191707104045        0.1154150700314669    
     2.925678008208735        0.1142438469311061    
     2.936164309313426        0.1130834658641407    
     2.946650610418117        0.1119338134144985    
     2.957136911522808        0.1107947773848747    
     2.967623212627499        0.1096662467834092    
     2.978109513732190        0.1085481118105013    
     2.988595814836880        0.1074402638457619    
     2.999082115941571        0.1063425954350961    
     3.009568417046262        0.1052550002779102    
     3.020054718150953        0.1041773732144528    
     3.030541019255644        0.1031096102157510    
     3.041027320360334        0.1020516083816047    
     3.051513621465025        0.1010032659021712    
     3.061999922569716        0.9996448205649312E-01
     3.072486223674407        0.9893515720307282E-01
     3.082972524779098        0.9791519276794741E-01
     3.093458825883789        0.9690449123289975E-01
     3.103945126988479        0.9590295612378072E-01
     3.114431428093170        0.9491049199894588E-01
     3.124917729197861        0.9392700443781177E-01
     3.135404030302551        0.9295240002952743E-01
     3.145890331407243        0.9198658636175913E-01
     3.156376632511933        0.9102947200957834E-01
     3.166862933616624        0.9008096652447532E-01
     3.177349234721315        0.8914098042347487E-01
     3.187835535826006        0.8820942517836046E-01
     3.198321836930696        0.8728621320500556E-01
     3.208808138035387        0.8637125785281861E-01
     3.219294439140078        0.8546447339429017E-01
     3.229780740244769        0.8456577501463733E-01
     3.240267041349460        0.8367507880156554E-01
     3.250753342454150        0.8279230173512675E-01
     3.261239643558841        0.8191736167768181E-01
     3.271725944663532        0.8105017736395616E-01
     3.282212245768223        0.8019066839120982E-01
     3.292698546872914        0.7933875520949955E-01
     3.303184847977604        0.7849435911203786E-01
     3.313671149082295        0.7765740222564951E-01
     3.324157450186986        0.7682780750133347E-01
     3.334643751291677        0.7600549870491526E-01
     3.345130052396368        0.7519040040779081E-01
     3.355616353501059        0.7438243797777055E-01
     3.366102654605749        0.7358153757001910E-01
     3.376588955710440        0.7278762611808547E-01
     3.387075256815131        0.7200063132501809E-01
     3.397561557919822        0.7122048165458489E-01
     3.408047859024513        0.7044710632257749E-01
     3.418534160129203        0.6968043528820754E-01
     3.429020461233894        0.6892039924558385E-01
     3.439506762338585        0.6816692961529171E-01
     3.449993063443276        0.6741995853605294E-01
     3.460479364547967        0.6667941885647530E-01
     3.470965665652658        0.6594524412687940E-01
     3.481451966757348        0.6521736859122745E-01
     3.491938267862039        0.6449572717912642E-01
     3.502424568966730        0.6378025549791974E-01
     3.512910870071421        0.6307088982485413E-01
     3.523397171176112        0.6236756709934388E-01
     3.533883472280802        0.6167022491530857E-01
     3.544369773385493        0.6097880151359519E-01
     3.554856074490184        0.6029323577447308E-01
     3.565342375594875        0.5961346721022471E-01
     3.575828676699566        0.5893943595780569E-01
     3.586314977804256        0.5827108277158785E-01
     3.596801278908947        0.5760834901617202E-01
     3.607287580013638        0.5695117665929309E-01
     3.617773881118329        0.5629950826479304E-01
     3.628260182223019        0.5565328698567416E-01
     3.638746483327711        0.5501245655721855E-01
     3.649232784432401        0.5437696129019813E-01
     3.659719085537092        0.5374674606415003E-01
     3.670205386641783        0.5312175632072965E-01
     3.680691687746473        0.5250193805712756E-01
     3.691177988851164        0.5188723781957282E-01
     3.701664289955855        0.5127760269690179E-01
     3.712150591060546        0.5067298031419963E-01
     3.722636892165237        0.5007331882650644E-01
     3.733123193269928        0.4947856691260265E-01
     3.743609494374618        0.4888867376886066E-01
     3.754095795479309        0.4830358910316580E-01
     3.764582096584000        0.4772326312890277E-01
     3.775068397688691        0.4714764655900976E-01
     3.785554698793382        0.4657669060010687E-01
     3.796040999898072        0.4601034694668461E-01
     3.806527301002763        0.4544856777536097E-01
     3.817013602107454        0.4489130573919663E-01
     3.827499903212145        0.4433851396208763E-01
     3.837986204316836        0.4379014603321355E-01
     3.848472505421527        0.4324615600155319E-01
     3.858958806526217        0.4270649837045432E-01
     3.869445107630908        0.4217112809227800E-01
     3.879931408735599        0.4164000056309893E-01
     3.890417709840290        0.4111307161746754E-01
     3.900904010944981        0.4059029752323079E-01
     3.911390312049671        0.4007163497641233E-01
     3.921876613154362        0.3955704109615818E-01
     3.932362914259053        0.3904647341973608E-01
     3.942849215363744        0.3853988989759566E-01
     3.953335516468435        0.3803724888847797E-01
     3.963821817573125        0.3753850915459529E-01
     3.974308118677816        0.3704362985685943E-01
     3.984794419782507        0.3655257055016822E-01
     3.995280720887198        0.3606529117874441E-01
     4.005767021991889        0.3558175207153028E-01
     4.016253323096580        0.3510191393764129E-01
     4.026739624201270        0.3462573786186792E-01
     4.037225925305961        0.3415318530023456E-01
     4.047712226410652        0.3368421807560205E-01
     4.058198527515342        0.3321879837333478E-01
     4.068684828620033        0.3275688873701160E-01
     4.079171129724724        0.3229845206418979E-01
     4.089657430829416        0.3184345160221824E-01
     4.100143731934106        0.3139185094409724E-01
     4.110630033038797        0.3094361402439577E-01
     4.121116334143488        0.3049870511521094E-01
     4.131602635248179        0.3005708882217891E-01
     4.142088936352869        0.2961873008052774E-01
     4.152575237457560        0.2918359415118302E-01
     4.163061538562251        0.2875164661691996E-01
     4.173547839666941        0.2832285337855860E-01
     4.184034140771632        0.2789718065120690E-01
     4.194520441876323        0.2747459496054352E-01
     4.205006742981014        0.2705506313915216E-01
     4.215493044085705        0.2663855232289657E-01
     4.225979345190396        0.2622502994733923E-01
     4.236465646295087        0.2581446374420267E-01
     4.246951947399777        0.2540682173786948E-01
     4.257438248504468        0.2500207224193252E-01
     4.267924549609159        0.2460018385578022E-01
     4.278410850713850        0.2420112546122519E-01
     4.288897151818540        0.2380486621917179E-01
     4.299383452923231        0.2341137556632202E-01
     4.309869754027922        0.2302062321192631E-01
     4.320356055132613        0.2263257913456892E-01
     4.330842356237303        0.2224721357899382E-01
     4.341328657341995        0.2186449705296563E-01
     4.351814958446686        0.2148440032416967E-01
     4.362301259551376        0.2110689441715173E-01
     4.372787560656067        0.2073195061029074E-01
     4.383273861760758        0.2035954043281019E-01
     4.393760162865449        0.1998963566182216E-01
     4.404246463970139        0.1962220831940790E-01
     4.414732765074830        0.1925723066973562E-01
     4.425219066179521        0.1889467521620962E-01
     4.435705367284211        0.1853451469865546E-01
     4.446191668388902        0.1817672209053535E-01
     4.456677969493594        0.1782127059619848E-01
     4.467164270598285        0.1746813364816606E-01
     4.477650571702975        0.1711728490444537E-01
     4.488136872807666        0.1676869824587747E-01
     4.498623173912357        0.1642234777351442E-01
     4.509109475017048        0.1607820780602768E-01
     4.519595776121738        0.1573625287714941E-01
     4.530082077226429        0.1539645773314182E-01
     4.540568378331120        0.1505879733029680E-01
     4.551054679435810        0.1472324683246462E-01
     4.561540980540501        0.1438978160860954E-01
     4.572027281645192        0.1405837723039865E-01
     4.582513582749884        0.1372900946981525E-01
     4.592999883854574        0.1340165429680102E-01
     4.603486184959265        0.1307628787692587E-01
     4.613972486063956        0.1275288656908237E-01
     4.624458787168646        0.1243142692321089E-01
     4.634945088273337        0.1211188567804869E-01
     4.645431389378028        0.1179423975890461E-01
     4.655917690482719        0.1147846627546127E-01
     4.666403991587409        0.1116454251959829E-01
     4.676890292692100        0.1085244596324579E-01
     4.687376593796791        0.1054215425625858E-01
     4.697862894901482        0.1023364522431655E-01
     4.708349196006173        0.9926896866847912E-02
     4.718835497110864        0.9621887354975676E-02
     4.729321798215555        0.9318595029487384E-02
     4.739808099320245        0.9016998398829468E-02
     4.750294400424936        0.8717076138851892E-02
     4.760780701529627        0.8418807189049247E-02
     4.771267002634318        0.8122171945672241E-02
     4.781753303739008        0.7827157509484060E-02
     4.792239604843699        0.7533769147181682E-02
     4.802725905948390        0.7242045720550152E-02
     4.813212207053081        0.6952074267982833E-02
     4.823698508157772        0.6663999991930810E-02
     4.834184809262463        0.6378030272646925E-02
     4.844671110367154        0.6094433135670386E-02
     4.855157411471844        0.5813531456513082E-02
     4.865643712576535        0.5535694359106494E-02
     4.876130013681226        0.5261327092636914E-02
     4.886616314785917        0.4990860382024787E-02
     4.897102615890607        0.4724739957535586E-02
     4.907588916995298        0.4463416725667641E-02
     4.918075218099989        0.4207337857072150E-02
     4.928561519204679        0.3956938932764414E-02
     4.939047820309370        0.3712637197179705E-02
     4.949534121414062        0.3474825905425926E-02
     4.960020422518753        0.3243869713619661E-02
     4.970506723623443        0.3020101038635018E-02
     4.980993024728134        0.2803817301885613E-02
     4.991479325832825        0.2595278967253519E-02
     5.001965626937515        0.2394708283420668E-02
     5.012451928042206        0.2202288643864470E-02
     5.022938229146897        0.2018164482448642E-02
     5.033424530251588        0.1842441628028875E-02
     5.043910831356278        0.1675188047254677E-02
     5.054397132460969        0.1516434910368689E-02
     5.064883433565661        0.1366177919998273E-02
     5.075369734670351        0.1224378847418318E-02
     5.085856035775042        0.1090967224262191E-02
     5.096342336879733        0.9658421397418614E-03
     5.106828637984424        0.8488740934771055E-03
     5.117314939089114        0.7399068508899272E-03
     5.127801240193805        0.6387592397560907E-03
     5.138287541298496        0.5452268089951301E-03
     5.148773842403187        0.4590832362788513E-03
     5.159260143507877        0.3800813028589386E-03
     5.169746444612568        0.3079531142439289E-03
     5.180232745717259        0.2424089401723387E-03
     5.190719046821950        0.1831333184575270E-03
     5.201205347926641        0.1297750962538153E-03
     5.211691649031332        0.8192171160084297E-04
     5.222177950136023        0.3902071290470753E-04
     5.232664251240713         0.000000000000000    
  0  1  2  0  0.000000   #orbital l, n, z, is_polarized, population
 500    0.7072042251562345E-02     3.528949083529610     # npts, delta, cutoff
     0.000000000000000         2.186760126249894    
    0.7072042251562345E-02     2.186589843830693    
    0.1414408450312469E-01     2.186091445419953    
    0.2121612675468704E-01     2.185261332100774    
    0.2828816900624938E-01     2.184100320724882    
    0.3536021125781173E-01     2.182609552753326    
    0.4243225350937407E-01     2.180790489447654    
    0.4950429576093641E-01     2.178644906835745    
    0.5657633801249876E-01     2.176174889758866    
    0.6364838026406111E-01     2.173382824957933    
    0.7072042251562345E-01     2.170271393227698    
    0.7779246476718579E-01     2.166843560685236    
    0.8486450701874815E-01     2.163102569207452    
    0.9193654927031049E-01     2.159051926098388    
    0.9900859152187283E-01     2.154695393051979    
    0.1060806337734352         2.150036974480032    
    0.1131526760249975         2.145080905278761    
    0.1202247182765599         2.139831638110240    
    0.1272967605281222         2.134293830277275    
    0.1343688027796845         2.128472330272071    
    0.1414408450312469         2.122372164080001    
    0.1485128872828093         2.115998521320295    
    0.1555849295343716         2.109356741305085    
    0.1626569717859339         2.102452299097715    
    0.1697290140374963         2.095290791649330    
    0.1768010562890586         2.087877924091049    
    0.1838730985406210         2.080219496256146    
    0.1909451407921833         2.072321389503486    
    0.1980171830437457         2.064189553909836    