Executable      : siesta
Version         : 5.1-MaX-22-g14d40d4d4
Architecture    : x86_64
Compiler version: GNU-12.3.0
Compiler flags  : -DSIESTA__METIS -fallow-argument-mismatch -O3 -march=native
Environment variables: 
  SIESTA_PS_PATH: ../../../static/siesta/PD_sr_standard_05
Parallelisations: MPI
NetCDF support
NetCDF-4 support
NetCDF-4 MPI-IO support
METIS ordering support
Lua support
Native ELPA support
DFT-D3 support

Runtime information:
* Directory : /home/nicpa/codes/sisl-files/tests/siesta/H2_hessian
* Running on 4 nodes in parallel.
>> Start of run:  16-MAY-2024  13:36:39

                           *********************** 
                           *  WELCOME TO SIESTA  * 
                           *********************** 

reinit: Reading from file h2_hessian.fdf

reinit: -----------------------------------------------------------------------
reinit: System Name: 
reinit: -----------------------------------------------------------------------
reinit: System Label: H2_hessian
reinit: -----------------------------------------------------------------------

initatom: Reading input for the pseudopotentials and atomic orbitals ----------
Species number:   1 Atomic number:    1 Label: H


---- Processing specs for species: H
Ground state valence configuration:   1s01
Reading pseudopotential information in PSML from:
  ../../../static/siesta/PD_sr_standard_05/H.psml
PSML file version: 1.1
Using libxc ids:  101 130
GGA--PBE XC_GGA_X_PBE--XC_GGA_C_PBE pb
PSML uuid: f95fa9b0-be40-11e7-634a-9594ffff953f
remass: Read atomic mass for species    1 as      1.00790

---- Pseudopotential check for H 

Pseudized shells:
1s( 1.00) rc: 1.01
2p( 0.00) rc: 0.71
Valence configuration for ps generation: 1s: Total charge:   1.000000
For H, standard SIESTA heuristics set lmxkb to 2
 (one more than the basis l, including polarization orbitals).
Use PS.lmax or PS.KBprojectors blocks to override.
H pseudopotential only contains V_ls up to l=1 -- lmxkb reset.

<basis_specs>
===============================================================================
H                    Z=   1    Mass=  1.0079        Charge= 0.17977+309
Lmxo=1 Lmxkb= 1    BasisType=split      Semic=F
L=0  Nsemic=0  Cnfigmx=1
          i=1  nzeta=2  polorb=1  (1s)  (to be polarized perturbatively)
            splnorm:   0.15000    
               vcte:    40.000    
               rinn:  -0.90000    
               qcoe:    0.0000    
               qyuk:    0.0000    
               qwid:   0.10000E-01
                rcs:    0.0000      0.0000    
            lambdas:    1.0000      1.0000    
L=1  Nsemic=0  Cnfigmx=2
          i=1  nzeta=0  polorb=0  (2p)  (perturbative polarization orbital) (from 1s)
-------------------------------------------------------------------------------
L=0  Nkbl=1  erefs: 0.17977+309
L=1  Nkbl=1  erefs: 0.17977+309
===============================================================================
</basis_specs>

Using PAO.SplitTailNorm
atom: Called for H                     (Z =   1)
Maximum radius (at nrval) set to   50.00000 8518

read_vps: Pseudopotential generation method:
read_vps: ONCVPSP-3.Hamann's oncvpsp                        
Valence charge in pseudo generation:    1.00000

xc_check: Exchange-correlation functional:
xc_check: GGA Perdew, Burke & Ernzerhof 1996
Got Vlocal (oncv-fit) from psml data
Choosing vlocal chloc cutoff:  1.926399
qtot up to nchloc:    0.99999831
atom: Maximum radius for chlocal:    1.92640
atom: Maximum radius for r*vlocal+2*Zval:    1.92640
Reading KB projs from H psml data
Using scalar-relativistic projectors in PSML file

PSML: Kleinman-Bylander projectors: 
   l= 0   rc=  1.022342   Ekb= -3.402247
   l= 0   rc=  1.022342   Ekb= -1.068968
   l= 1   rc=  0.714575   Ekb= -1.006642

PSML: Total number of  Kleinman-Bylander projectors:   5
atom: -------------------------------------------------------------------------

atom: SANKEY-TYPE ORBITALS:
atom: Selected multiple-zeta basis: split     

SPLIT: Orbitals with angular momentum L= 0

SPLIT: Basis orbitals for state 1s

SPLIT: PAO cut-off radius determined from an
SPLIT: energy shift=  0.010000 Ry
Split based on tail norm

   izeta = 1
                 lambda =    1.000000
                     rc =    5.232664
                 energy =   -0.466081
                kinetic =    0.956761
    potential(screened) =   -1.422842
       potential(ionic) =   -1.948825

   izeta = 2
                 rmatch =    3.528949
              splitnorm =    0.150000
                 energy =   -0.298222
                kinetic =    1.742153
    potential(screened) =   -2.040375
       potential(ionic) =   -2.593332

POLgen: Perturbative polarization orbital with L=  1

POLgen: Polarization orbital for state 1s
Split based on tail norm

   izeta = 1
                     rc =    5.232664
                 energy =    0.682216
                kinetic =    1.337348
    potential(screened) =   -0.655132
       potential(ionic) =   -1.143559
atom: Total number of Sankey-type orbitals:  5

atm_pop: Valence configuration (for local Pseudopot. screening):
 1s( 1.00)                                                            
 2p( 0.00)                                                            
Vna: chval, zval:    1.00000   1.00000

Vna:  Cut-off radius for the neutral-atom potential:   5.232664

atom: _________________________________________________________________________

prinput: Basis input 

PAO.BasisType split     

%block ChemicalSpeciesLabel
    1    1 H                       # Species index, atomic number, species label
%endblock ChemicalSpeciesLabel

%block PAO.Basis                 # Define Basis set
# WARNING: This information might be incomplete!
H                     1                    # Species label, number of l-shells
 n=1   0   2 P   1                   # n, l, Nzeta, Polarization, NzetaPol
   5.233      3.529   
   1.000      1.000   
%endblock PAO.Basis

prinput: ----------------------------------------------------------------------

Dumping basis to NetCDF file H.ion.nc
coor:   Atomic-coordinates input format  =     Cartesian coordinates
coor:                                          (in Angstroms)
coor:   Atomic-coodinates centered at COP

siesta: Atomic coordinates (Bohr) and species
siesta:     18.07199  18.89726  18.89726  1        1
siesta:     19.72253  18.89726  18.89726  1        2

siesta: System type = molecule  

initatomlists: Number of atoms, orbitals, and projectors:      2    10    10

siesta: ******************** Simulation parameters ****************************
siesta:
siesta: The following are some of the parameters of the simulation.
siesta: A complete list of the parameters used, including default values,
siesta: can be found in file out.fdf
siesta:
redata: Spin configuration                          = none
redata: Number of spin components                   = 1
redata: Time-Reversal Symmetry                      = T
redata: Spin spiral                                 = F
redata: Long output                                 =   F
redata: Number of Atomic Species                    =        1
redata: Charge density info will appear in .RHO file
redata: Write Mulliken Pop.                         = NO
redata: Matel table size (NRTAB)                    =     1024
redata: Mesh Cutoff                                 =   250.0000 Ry
redata: Net charge of the system                    =     0.0000 |e|
redata: Min. number of SCF Iter                     =        0
redata: Max. number of SCF Iter                     =     1000
redata: SCF convergence failure will abort job
redata: SCF mix quantity                            = Hamiltonian
redata: Mix DM or H after convergence               =   F
redata: Recompute H after scf cycle                 =   F
redata: Mix DM in first SCF step                    =   T
redata: Write Pulay info on disk                    =   F
redata: New DM Occupancy tolerance                  = 0.000000000001
redata: No kicks to SCF
redata: DM Mixing Weight for Kicks                  =     0.5000
redata: Require Harris convergence for SCF          =   F
redata: Harris energy tolerance for SCF             =     0.000100 eV
redata: Require DM convergence for SCF              =   T
redata: DM tolerance for SCF                        =     0.000100
redata: Require EDM convergence for SCF             =   F
redata: EDM tolerance for SCF                       =     0.001000 eV
redata: Require H convergence for SCF               =   T
redata: Hamiltonian tolerance for SCF               =     0.000050 eV
diag: ELPA GPU string key (configured):      ÄV@!•ºÈ≤ÂB@!•ºÈ≤ÂB@9ùR¢Fﬂë?     ÄV@Ó¶mN )@FC              kgrid.File                               3    Ïˇ˜˝   ‚K    
diag: ELPA GPU string key (fdf):      ÄV@!•ºÈ≤ÂB@!•ºÈ≤ÂB@9ùR¢Fﬂë?     ÄV@Ó¶mN )@FC              kgrid.File
redata: Require (free) Energy convergence for SCF   =   F
redata: (free) Energy tolerance for SCF             =     0.000100 eV
diag: ELPA GPU string key:      ÄV@!•ºÈ≤ÂB@!•ºÈ≤ÂB@9ùR¢Fﬂë?     ÄV@Ó¶mN )@FC              kgrid.File
redata: Using DFT-D3 dispersion                     =   F
redata: Using Saved Data (generic)                  =   F
redata: Use continuation files for DM               =   T
redata: Neglect nonoverlap interactions             =   F
redata: Method of Calculation                       = Diagonalization
redata: Electronic Temperature                      =   100.0000 K
redata: Fix the spin of the system                  =   F
redata: Max. number of TDED Iter                    =        1
redata: Number of TDED substeps                     =        3
redata: Dynamics option                             = Force Constants Matrix Calculation
redata: Atomic displ for force constants            =     0.0212  Ang
redata: First atom to move                          =        1
redata: Last atom to move                           =        2
diag: ELPA GPU string key (configured):      ÄV@!•ºÈ≤ÂB@!•ºÈ≤ÂB@9ùR¢Fﬂë?     ÄV@Ó¶mN )@FC              kgrid.File                               3    ∞[Ñn¸  ¿¬∂    
diag: ELPA GPU string key (configured):      ÄV@!•ºÈ≤ÂB@!•ºÈ≤ÂB@9ùR¢Fﬂë?     ÄV@Ó¶mN )@FC              kgrid.File                               3    0\Çˇ   ,ó    
diag: ELPA GPU string key (fdf):      ÄV@!•ºÈ≤ÂB@!•ºÈ≤ÂB@9ùR¢Fﬂë?     ÄV@Ó¶mN )@FC              kgrid.File
diag: ELPA GPU string key:      ÄV@!•ºÈ≤ÂB@!•ºÈ≤ÂB@9ùR¢Fﬂë?     ÄV@Ó¶mN )@FC              kgrid.File
diag: ELPA GPU string key (fdf):      ÄV@!•ºÈ≤ÂB@!•ºÈ≤ÂB@9ùR¢Fﬂë?     ÄV@Ó¶mN )@FC              kgrid.File
diag: ELPA GPU string key:      ÄV@!•ºÈ≤ÂB@!•ºÈ≤ÂB@9ùR¢Fﬂë?     ÄV@Ó¶mN )@FC              kgrid.File
mix.SCF: Pulay mixing                            = Pulay
mix.SCF:    Variant                              = stable
mix.SCF:    History steps                        = 2
mix.SCF:    Linear mixing weight                 =     0.250000
mix.SCF:    Mixing weight                        =     0.250000
mix.SCF:    SVD condition                        = 0.1000E-07
redata: Save all siesta data in one NC              =   F
redata: ***********************************************************************

%block SCF.Mixers
  Pulay
%endblock SCF.Mixers

%block SCF.Mixer.Pulay
  # Mixing method
  method pulay
  variant stable

  # Mixing options
  weight 0.2500
  weight.linear 0.2500
  history 2
%endblock SCF.Mixer.Pulay

DM_history_depth set to one for 'Forces' run
Size of DM history Fstack: 1
Total number of electrons:     2.000000
Total ionic charge:     2.000000

* ProcessorY, Blocksize:    2   2


* Orbital distribution balance (max,min):     4     2


siesta: k-grid: Number of k-points = 1
siesta: k-point is Gamma-only
diag: ELPA GPU string key (configured):                                                                                                          3    PÉî®˝  p    
diag: ELPA GPU string key (fdf):                                                 
diag: ELPA GPU string key:                                                 

diag: Algorithm                                     = D&C
diag: Parallel over k                               =   F
diag: Use parallel 2D distribution                  =   T
diag: Parallel block-size                           = 2
diag: Parallel distribution                         =     2 x     2
diag: Used triangular part                          = Lower
diag: Absolute tolerance                            =  0.100E-15
diag: Orthogonalization factor                      =  0.100E-05
diag: Memory factor                                 =  1.0000


ts: **************************************************************
ts: Save H and S matrices                           =    F
ts: Save DM and EDM matrices                        =    F
ts: Only save the overlap matrix S                  =    F
ts: **************************************************************

************************ Begin: TS CHECKS AND WARNINGS ************************
************************ End: TS CHECKS AND WARNINGS **************************


                     ====================================
                        Begin FC step =      0
                        Undisplaced coordinates
                     ====================================

outcell: Unit cell vectors (Ang):
       20.000000    0.000000    0.000000
        0.000000   20.000000    0.000000
        0.000000    0.000000   20.000000

outcell: Cell vector modules (Ang)   :   20.000000   20.000000   20.000000
outcell: Cell angles (23,13,12) (deg):     90.0000     90.0000     90.0000
outcell: Cell volume (Ang**3)        :   8000.0000
<dSpData1D:S at geom step 0
  <sparsity:sparsity for geom step 0
    nrows_g=10 nrows=4 sparsity=.4000 nnzs=40, refcount: 7>
  <dData1D:(new from dSpData1D) n=40, refcount: 1>
refcount: 1>
new_DM -- step:     1
Initializing Density Matrix...

Attempting to read DM from file... Failed...
DM filled with atomic data:
<dSpData2D:DM initialized from atoms
  <sparsity:sparsity for geom step 0
    nrows_g=10 nrows=4 sparsity=.4000 nnzs=40, refcount: 8>
  <dData2D:DM n=40 m=1, refcount: 1>
refcount: 1>
No. of atoms with KB's overlaping orbs in proc 0. Max # of overlaps:       2      10

InitMesh: MESH = 192 x 192 x 192 = 7077888
InitMesh: Mesh cutoff (required, used) =   250.000   254.709 Ry
New grid distribution [1]: sub = 2
New grid distribution [2]: sub = 2
New grid distribution [3]: sub = 2
Setting up quadratic distribution...

stepf: Fermi-Dirac step function

siesta: Program's energy decomposition (eV):
siesta: Ebs     =       -18.247818
siesta: Eions   =        61.893469
siesta: Ena     =        28.957112
siesta: Ekin    =        28.461579
siesta: Enl     =        -4.630539
siesta: Eso     =         0.000000
siesta: Edftu   =         0.000000
siesta: DEna    =        -4.462018
siesta: DUscf   =         0.605687
siesta: DUext   =         0.000000
siesta: Ex      =       -17.037126
siesta: Ec      =        -1.252785
siesta: Exc     =       -18.289912
siesta: EbV     =         0.000000
siesta: eta*DQ  =         0.000000
siesta: Emadel  =         0.000000
siesta: Emeta   =         0.000000
siesta: Emolmec =         0.000000
siesta: Ekinion =         0.000000
siesta: Eharris =       -35.650484
siesta: Etot    =       -31.251561
siesta: FreeEng =       -31.251561

        iscf     Eharris(eV)        E_KS(eV)     FreeEng(eV)     dDmax    Ef(eV) dHmax(eV)
   scf:    1      -35.650484      -31.251561      -31.251561  0.816142 -3.839563  2.583545
timer: Routine,Calls,Time,% = IterSCF        1       0.758  33.07
   scf:    2      -31.308256      -31.280381      -31.280381  0.018455 -3.235810  1.795342
   scf:    3      -31.330896      -31.308423      -31.308423  0.047307 -1.875598  0.019662
   scf:    4      -31.308431      -31.308428      -31.308428  0.000601 -1.891374  0.003875
   scf:    5      -31.308428      -31.308428      -31.308428  0.000011 -1.891003  0.002967
   scf:    6      -31.308428      -31.308428      -31.308428  0.000029 -1.890026  0.000304
   scf:    7      -31.308428      -31.308428      -31.308428  0.000001 -1.890058  0.000185
   scf:    8      -31.308428      -31.308428      -31.308428  0.000003 -1.890137  0.000053
   scf:    9      -31.308428      -31.308428      -31.308428  0.000000 -1.890145  0.000042

SCF Convergence by DM+H criterion
max |DM_out - DM_in|         :     0.0000001991
max |H_out - H_in|      (eV) :     0.0000418412
SCF cycle converged after 9 iterations

Using DM_out to compute the final energy and forces
 E_bs from EDM:  -19.208504916304921     
No. of atoms with KB's overlaping orbs in proc 0. Max # of overlaps:       2      10

siesta: E_KS(eV) =              -31.3084

siesta: E_KS - E_eggbox =       -31.3084

siesta: Atomic forces (eV/Ang):
----------------------------------------
   Tot    0.000000   -0.000000   -0.000000
----------------------------------------
   Max    2.510570
   Res    1.449478    sqrt( Sum f_i^2 / 3N )
----------------------------------------
   Max    2.510570    constrained

Stress tensor Voigt[x,y,z,yz,xz,xy] (kbar):        0.44       -0.00       -0.00       -0.00       -0.00        0.00
(Free)E + p*V (eV/cell)      -32.0391
Target enthalpy (eV/cell)      -31.3084

                     ====================================
                        Begin FC step =      1
                         displace atom 1
                         in direction 1 by -0.021167 Ang
                     ====================================

outcell: Unit cell vectors (Ang):
       20.000000    0.000000    0.000000
        0.000000   20.000000    0.000000
        0.000000    0.000000   20.000000

outcell: Cell vector modules (Ang)   :   20.000000   20.000000   20.000000
outcell: Cell angles (23,13,12) (deg):     90.0000     90.0000     90.0000
outcell: Cell volume (Ang**3)        :   8000.0000
<dSpData1D:S at geom step 1
  <sparsity:sparsity for geom step 1
    nrows_g=10 nrows=4 sparsity=.4000 nnzs=40, refcount: 7>
  <dData1D:(new from dSpData1D) n=40, refcount: 1>
refcount: 1>
new_DM -- step:     2
Initializing Density Matrix...

Attempting to read DM from file... Succeeded...
DM from file:
<dSpData2D:IO-DM: H2_hessian.DM
  <sparsity:IO-DM: H2_hessian.DM
    nrows_g=10 nrows=4 sparsity=.4000 nnzs=40, refcount: 1>
  <dData2D:(new from dSpData2D) n=40 m=1, refcount: 1>
refcount: 1>
DM to be used:
<dSpData2D:Re-structured SpM
  <sparsity:sparsity for geom step 1
    nrows_g=10 nrows=4 sparsity=.4000 nnzs=40, refcount: 9>
  <dData2D:(new in restruct) n=40 m=1, refcount: 1>
refcount: 1>
Note: For starting DM, Qtot, Tr[D*S] =          2.00000000          1.98474713
No. of atoms with KB's overlaping orbs in proc 0. Max # of overlaps:       2      10

InitMesh: MESH = 192 x 192 x 192 = 7077888
InitMesh: Mesh cutoff (required, used) =   250.000   254.709 Ry
New grid distribution [1]: sub = 2
New grid distribution [2]: sub = 2
New grid distribution [3]: sub = 2
Setting up quadratic distribution...

        iscf     Eharris(eV)        E_KS(eV)     FreeEng(eV)     dDmax    Ef(eV) dHmax(eV)
   scf:    1      -31.251760      -31.251226      -31.251226  0.011120 -1.819769  0.072132
   scf:    2      -31.251301      -31.251271      -31.251271  0.002561 -1.886063  0.017600
   scf:    3      -31.251276      -31.251274      -31.251274  0.000502 -1.873070  0.000058
   scf:    4      -31.251274      -31.251274      -31.251274  0.000001 -1.873069  0.000046

SCF Convergence by DM+H criterion
max |DM_out - DM_in|         :     0.0000012158
max |H_out - H_in|      (eV) :     0.0000463076
SCF cycle converged after 4 iterations

Using DM_out to compute the final energy and forces
 E_bs from EDM:  -19.023767506908612     
No. of atoms with KB's overlaping orbs in proc 0. Max # of overlaps:       2      10

siesta: E_KS(eV) =              -31.2513

siesta: Atomic forces (eV/Ang):
----------------------------------------
   Tot    0.002766    0.000000   -0.000000
----------------------------------------
   Max    2.880263
   Res    1.662122    sqrt( Sum f_i^2 / 3N )
----------------------------------------
   Max    2.880263    constrained

Stress tensor Voigt[x,y,z,yz,xz,xy] (kbar):        0.52       -0.00       -0.00        0.00       -0.00       -0.00
(Free)E + p*V (eV/cell)      -32.1094
Target enthalpy (eV/cell)      -31.2513

                     ====================================
                        Begin FC step =      2
                         displace atom 1
                         in direction 1 by  0.021167 Ang
                     ====================================

outcell: Unit cell vectors (Ang):
       20.000000    0.000000    0.000000
        0.000000   20.000000    0.000000
        0.000000    0.000000   20.000000

outcell: Cell vector modules (Ang)   :   20.000000   20.000000   20.000000
outcell: Cell angles (23,13,12) (deg):     90.0000     90.0000     90.0000
outcell: Cell volume (Ang**3)        :   8000.0000
<dSpData1D:S at geom step 2
  <sparsity:sparsity for geom step 2
    nrows_g=10 nrows=4 sparsity=.4000 nnzs=40, refcount: 7>
  <dData1D:(new from dSpData1D) n=40, refcount: 1>
refcount: 1>
new_DM -- step:     3
Initializing Density Matrix...

Attempting to read DM from file... Succeeded...
DM from file:
<dSpData2D:IO-DM: H2_hessian.DM
  <sparsity:IO-DM: H2_hessian.DM
    nrows_g=10 nrows=4 sparsity=.4000 nnzs=40, refcount: 1>
  <dData2D:(new from dSpData2D) n=40 m=1, refcount: 1>
refcount: 1>
DM to be used:
<dSpData2D:Re-structured SpM
  <sparsity:sparsity for geom step 2
    nrows_g=10 nrows=4 sparsity=.4000 nnzs=40, refcount: 9>
  <dData2D:(new in restruct) n=40 m=1, refcount: 1>
refcount: 1>
Note: For starting DM, Qtot, Tr[D*S] =          2.00000000          2.01527150
No. of atoms with KB's overlaping orbs in proc 0. Max # of overlaps:       2      10

InitMesh: MESH = 192 x 192 x 192 = 7077888
InitMesh: Mesh cutoff (required, used) =   250.000   254.709 Ry
New grid distribution [1]: sub = 2
New grid distribution [2]: sub = 2
New grid distribution [3]: sub = 2
Setting up quadratic distribution...

        iscf     Eharris(eV)        E_KS(eV)     FreeEng(eV)     dDmax    Ef(eV) dHmax(eV)
   scf:    1      -31.357708      -31.357147      -31.357147  0.011107 -1.963368  0.075600
   scf:    2      -31.357228      -31.357196      -31.357196  0.002540 -1.893731  0.018561
   scf:    3      -31.357201      -31.357199      -31.357199  0.000503 -1.907420  0.000068
   scf:    4      -31.357199      -31.357199      -31.357199  0.000001 -1.907413  0.000047

SCF Convergence by DM+H criterion
max |DM_out - DM_in|         :     0.0000007714
max |H_out - H_in|      (eV) :     0.0000473646
SCF cycle converged after 4 iterations

Using DM_out to compute the final energy and forces
 E_bs from EDM:  -19.399586401182493     
No. of atoms with KB's overlaping orbs in proc 0. Max # of overlaps:       2      10

siesta: E_KS(eV) =              -31.3572

siesta: Atomic forces (eV/Ang):
----------------------------------------
   Tot   -0.005114    0.000000   -0.000000
----------------------------------------
   Max    2.094409
   Res    1.207733    sqrt( Sum f_i^2 / 3N )
----------------------------------------
   Max    2.094409    constrained

Stress tensor Voigt[x,y,z,yz,xz,xy] (kbar):        0.36       -0.00       -0.00        0.00        0.00        0.00
(Free)E + p*V (eV/cell)      -31.9518
Target enthalpy (eV/cell)      -31.3572

                     ====================================
                        Begin FC step =      3
                         displace atom 1
                         in direction 2 by -0.021167 Ang
                     ====================================

outcell: Unit cell vectors (Ang):
       20.000000    0.000000    0.000000
        0.000000   20.000000    0.000000
        0.000000    0.000000   20.000000

outcell: Cell vector modules (Ang)   :   20.000000   20.000000   20.000000
outcell: Cell angles (23,13,12) (deg):     90.0000     90.0000     90.0000
outcell: Cell volume (Ang**3)        :   8000.0000
<dSpData1D:S at geom step 3
  <sparsity:sparsity for geom step 3
    nrows_g=10 nrows=4 sparsity=.4000 nnzs=40, refcount: 7>
  <dData1D:(new from dSpData1D) n=40, refcount: 1>
refcount: 1>
new_DM -- step:     4
Initializing Density Matrix...

Attempting to read DM from file... Succeeded...
DM from file:
<dSpData2D:IO-DM: H2_hessian.DM
  <sparsity:IO-DM: H2_hessian.DM
    nrows_g=10 nrows=4 sparsity=.4000 nnzs=40, refcount: 1>
  <dData2D:(new from dSpData2D) n=40 m=1, refcount: 1>
refcount: 1>
DM to be used:
<dSpData2D:Re-structured SpM
  <sparsity:sparsity for geom step 3
    nrows_g=10 nrows=4 sparsity=.4000 nnzs=40, refcount: 9>
  <dData2D:(new in restruct) n=40 m=1, refcount: 1>
refcount: 1>
No. of atoms with KB's overlaping orbs in proc 0. Max # of overlaps:       2      10

InitMesh: MESH = 192 x 192 x 192 = 7077888
InitMesh: Mesh cutoff (required, used) =   250.000   254.709 Ry
New grid distribution [1]: sub = 2
New grid distribution [2]: sub = 2
New grid distribution [3]: sub = 2
Setting up quadratic distribution...

        iscf     Eharris(eV)        E_KS(eV)     FreeEng(eV)     dDmax    Ef(eV) dHmax(eV)
   scf:    1      -31.307780      -31.307771      -31.307771  0.000346 -1.889228  0.000865
   scf:    2      -31.307771      -31.307771      -31.307771  0.000031 -1.890023  0.000212
   scf:    3      -31.307771      -31.307771      -31.307771  0.000006 -1.889872  0.000041

SCF Convergence by DM+H criterion
max |DM_out - DM_in|         :     0.0000057429
max |H_out - H_in|      (eV) :     0.0000407315
SCF cycle converged after 3 iterations

Using DM_out to compute the final energy and forces
 E_bs from EDM:  -19.206265312518301     
No. of atoms with KB's overlaping orbs in proc 0. Max # of overlaps:       2      10

siesta: E_KS(eV) =              -31.3078

siesta: Atomic forces (eV/Ang):
----------------------------------------
   Tot   -0.000038    0.000955    0.000000
----------------------------------------
   Max    2.514554
   Res    1.452199    sqrt( Sum f_i^2 / 3N )
----------------------------------------
   Max    2.514554    constrained

Stress tensor Voigt[x,y,z,yz,xz,xy] (kbar):        0.44        0.00       -0.00        0.00       -0.00        0.01
(Free)E + p*V (eV/cell)      -32.0401
Target enthalpy (eV/cell)      -31.3078

                     ====================================
                        Begin FC step =      4
                         displace atom 1
                         in direction 2 by  0.021167 Ang
                     ====================================

outcell: Unit cell vectors (Ang):
       20.000000    0.000000    0.000000
        0.000000   20.000000    0.000000
        0.000000    0.000000   20.000000

outcell: Cell vector modules (Ang)   :   20.000000   20.000000   20.000000
outcell: Cell angles (23,13,12) (deg):     90.0000     90.0000     90.0000
outcell: Cell volume (Ang**3)        :   8000.0000
<dSpData1D:S at geom step 4
  <sparsity:sparsity for geom step 4
    nrows_g=10 nrows=4 sparsity=.4000 nnzs=40, refcount: 7>
  <dData1D:(new from dSpData1D) n=40, refcount: 1>
refcount: 1>
new_DM -- step:     5
Initializing Density Matrix...

Attempting to read DM from file... Succeeded...
DM from file:
<dSpData2D:IO-DM: H2_hessian.DM
  <sparsity:IO-DM: H2_hessian.DM
    nrows_g=10 nrows=4 sparsity=.4000 nnzs=40, refcount: 1>
  <dData2D:(new from dSpData2D) n=40 m=1, refcount: 1>
refcount: 1>
DM to be used:
<dSpData2D:Re-structured SpM
  <sparsity:sparsity for geom step 4
    nrows_g=10 nrows=4 sparsity=.4000 nnzs=40, refcount: 9>
  <dData2D:(new in restruct) n=40 m=1, refcount: 1>
refcount: 1>
No. of atoms with KB's overlaping orbs in proc 0. Max # of overlaps:       2      10

InitMesh: MESH = 192 x 192 x 192 = 7077888
InitMesh: Mesh cutoff (required, used) =   250.000   254.709 Ry
New grid distribution [1]: sub = 2
New grid distribution [2]: sub = 2
New grid distribution [3]: sub = 2
Setting up quadratic distribution...

        iscf     Eharris(eV)        E_KS(eV)     FreeEng(eV)     dDmax    Ef(eV) dHmax(eV)
   scf:    1      -31.307780      -31.307771      -31.307771  0.000346 -1.889228  0.000865
   scf:    2      -31.307771      -31.307771      -31.307771  0.000031 -1.890023  0.000212
   scf:    3      -31.307771      -31.307771      -31.307771  0.000006 -1.889872  0.000041

SCF Convergence by DM+H criterion
max |DM_out - DM_in|         :     0.0000057429
max |H_out - H_in|      (eV) :     0.0000407315
SCF cycle converged after 3 iterations

Using DM_out to compute the final energy and forces
 E_bs from EDM:  -19.206265312518269     
No. of atoms with KB's overlaping orbs in proc 0. Max # of overlaps:       2      10

siesta: E_KS(eV) =              -31.3078

siesta: Atomic forces (eV/Ang):
----------------------------------------
   Tot   -0.000038   -0.000955   -0.000000
----------------------------------------
   Max    2.514554
   Res    1.452199    sqrt( Sum f_i^2 / 3N )
----------------------------------------
   Max    2.514554    constrained

Stress tensor Voigt[x,y,z,yz,xz,xy] (kbar):        0.44        0.00       -0.00       -0.00       -0.00       -0.01
(Free)E + p*V (eV/cell)      -32.0401
Target enthalpy (eV/cell)      -31.3078

                     ====================================
                        Begin FC step =      5
                         displace atom 1
                         in direction 3 by -0.021167 Ang
                     ====================================

outcell: Unit cell vectors (Ang):
       20.000000    0.000000    0.000000
        0.000000   20.000000    0.000000
        0.000000    0.000000   20.000000

outcell: Cell vector modules (Ang)   :   20.000000   20.000000   20.000000
outcell: Cell angles (23,13,12) (deg):     90.0000     90.0000     90.0000
outcell: Cell volume (Ang**3)        :   8000.0000
<dSpData1D:S at geom step 5
  <sparsity:sparsity for geom step 5
    nrows_g=10 nrows=4 sparsity=.4000 nnzs=40, refcount: 7>
  <dData1D:(new from dSpData1D) n=40, refcount: 1>
refcount: 1>
new_DM -- step:     6
Initializing Density Matrix...

Attempting to read DM from file... Succeeded...
DM from file:
<dSpData2D:IO-DM: H2_hessian.DM
  <sparsity:IO-DM: H2_hessian.DM
    nrows_g=10 nrows=4 sparsity=.4000 nnzs=40, refcount: 1>
  <dData2D:(new from dSpData2D) n=40 m=1, refcount: 1>
refcount: 1>
DM to be used:
<dSpData2D:Re-structured SpM
  <sparsity:sparsity for geom step 5
    nrows_g=10 nrows=4 sparsity=.4000 nnzs=40, refcount: 9>
  <dData2D:(new in restruct) n=40 m=1, refcount: 1>
refcount: 1>
No. of atoms with KB's overlaping orbs in proc 0. Max # of overlaps:       2      10

InitMesh: MESH = 192 x 192 x 192 = 7077888
InitMesh: Mesh cutoff (required, used) =   250.000   254.709 Ry
New grid distribution [1]: sub = 2
New grid distribution [2]: sub = 2
New grid distribution [3]: sub = 2
Setting up quadratic distribution...

        iscf     Eharris(eV)        E_KS(eV)     FreeEng(eV)     dDmax    Ef(eV) dHmax(eV)
   scf:    1      -31.307780      -31.307771      -31.307771  0.000346 -1.889228  0.000865
   scf:    2      -31.307771      -31.307771      -31.307771  0.000031 -1.890023  0.000212
   scf:    3      -31.307771      -31.307771      -31.307771  0.000006 -1.889872  0.000041

SCF Convergence by DM+H criterion
max |DM_out - DM_in|         :     0.0000057429
max |H_out - H_in|      (eV) :     0.0000407315
SCF cycle converged after 3 iterations

Using DM_out to compute the final energy and forces
 E_bs from EDM:  -19.206265312518500     
No. of atoms with KB's overlaping orbs in proc 0. Max # of overlaps:       2      10

siesta: E_KS(eV) =              -31.3078

siesta: Atomic forces (eV/Ang):
----------------------------------------
   Tot   -0.000038    0.000000    0.000955
----------------------------------------
   Max    2.514554
   Res    1.452199    sqrt( Sum f_i^2 / 3N )
----------------------------------------
   Max    2.514554    constrained

Stress tensor Voigt[x,y,z,yz,xz,xy] (kbar):        0.44       -0.00        0.00       -0.00        0.01       -0.00
(Free)E + p*V (eV/cell)      -32.0401
Target enthalpy (eV/cell)      -31.3078

                     ====================================
                        Begin FC step =      6
                         displace atom 1
                         in direction 3 by  0.021167 Ang
                     ====================================

outcell: Unit cell vectors (Ang):
       20.000000    0.000000    0.000000
        0.000000   20.000000    0.000000
        0.000000    0.000000   20.000000

outcell: Cell vector modules (Ang)   :   20.000000   20.000000   20.000000
outcell: Cell angles (23,13,12) (deg):     90.0000     90.0000     90.0000
outcell: Cell volume (Ang**3)        :   8000.0000
<dSpData1D:S at geom step 6
  <sparsity:sparsity for geom step 6
    nrows_g=10 nrows=4 sparsity=.4000 nnzs=40, refcount: 7>
  <dData1D:(new from dSpData1D) n=40, refcount: 1>
refcount: 1>
new_DM -- step:     7
Initializing Density Matrix...

Attempting to read DM from file... Succeeded...
DM from file:
<dSpData2D:IO-DM: H2_hessian.DM
  <sparsity:IO-DM: H2_hessian.DM
    nrows_g=10 nrows=4 sparsity=.4000 nnzs=40, refcount: 1>
  <dData2D:(new from dSpData2D) n=40 m=1, refcount: 1>
refcount: 1>
DM to be used:
<dSpData2D:Re-structured SpM
  <sparsity:sparsity for geom step 6
    nrows_g=10 nrows=4 sparsity=.4000 nnzs=40, refcount: 9>
  <dData2D:(new in restruct) n=40 m=1, refcount: 1>
refcount: 1>
No. of atoms with KB's overlaping orbs in proc 0. Max # of overlaps:       2      10

InitMesh: MESH = 192 x 192 x 192 = 7077888
InitMesh: Mesh cutoff (required, used) =   250.000   254.709 Ry
New grid distribution [1]: sub = 2
New grid distribution [2]: sub = 2
New grid distribution [3]: sub = 2
Setting up quadratic distribution...

        iscf     Eharris(eV)        E_KS(eV)     FreeEng(eV)     dDmax    Ef(eV) dHmax(eV)
   scf:    1      -31.307780      -31.307771      -31.307771  0.000346 -1.889228  0.000865
   scf:    2      -31.307771      -31.307771      -31.307771  0.000031 -1.890023  0.000212
   scf:    3      -31.307771      -31.307771      -31.307771  0.000006 -1.889872  0.000041

SCF Convergence by DM+H criterion
max |DM_out - DM_in|         :     0.0000057429
max |H_out - H_in|      (eV) :     0.0000407315
SCF cycle converged after 3 iterations

Using DM_out to compute the final energy and forces
 E_bs from EDM:  -19.206265312518482     
No. of atoms with KB's overlaping orbs in proc 0. Max # of overlaps:       2      10

siesta: E_KS(eV) =              -31.3078

siesta: Atomic forces (eV/Ang):
----------------------------------------
   Tot   -0.000038    0.000000   -0.000955
----------------------------------------
   Max    2.514554
   Res    1.452199    sqrt( Sum f_i^2 / 3N )
----------------------------------------
   Max    2.514554    constrained

Stress tensor Voigt[x,y,z,yz,xz,xy] (kbar):        0.44       -0.00        0.00       -0.00       -0.01        0.00
(Free)E + p*V (eV/cell)      -32.0401
Target enthalpy (eV/cell)      -31.3078

                     ====================================
                        Begin FC step =      7
                         displace atom 2
                         in direction 1 by -0.021167 Ang
                     ====================================

outcell: Unit cell vectors (Ang):
       20.000000    0.000000    0.000000
        0.000000   20.000000    0.000000
        0.000000    0.000000   20.000000

outcell: Cell vector modules (Ang)   :   20.000000   20.000000   20.000000
outcell: Cell angles (23,13,12) (deg):     90.0000     90.0000     90.0000
outcell: Cell volume (Ang**3)        :   8000.0000
<dSpData1D:S at geom step 7
  <sparsity:sparsity for geom step 7
    nrows_g=10 nrows=4 sparsity=.4000 nnzs=40, refcount: 7>
  <dData1D:(new from dSpData1D) n=40, refcount: 1>
refcount: 1>
new_DM -- step:     8
Initializing Density Matrix...

Attempting to read DM from file... Succeeded...
DM from file:
<dSpData2D:IO-DM: H2_hessian.DM
  <sparsity:IO-DM: H2_hessian.DM
    nrows_g=10 nrows=4 sparsity=.4000 nnzs=40, refcount: 1>
  <dData2D:(new from dSpData2D) n=40 m=1, refcount: 1>
refcount: 1>
DM to be used:
<dSpData2D:Re-structured SpM
  <sparsity:sparsity for geom step 7
    nrows_g=10 nrows=4 sparsity=.4000 nnzs=40, refcount: 9>
  <dData2D:(new in restruct) n=40 m=1, refcount: 1>
refcount: 1>
Note: For starting DM, Qtot, Tr[D*S] =          2.00000000          2.01527150
No. of atoms with KB's overlaping orbs in proc 0. Max # of overlaps:       2      10

InitMesh: MESH = 192 x 192 x 192 = 7077888
InitMesh: Mesh cutoff (required, used) =   250.000   254.709 Ry
New grid distribution [1]: sub = 2
New grid distribution [2]: sub = 2
New grid distribution [3]: sub = 2
Setting up quadratic distribution...

        iscf     Eharris(eV)        E_KS(eV)     FreeEng(eV)     dDmax    Ef(eV) dHmax(eV)
   scf:    1      -31.357708      -31.357147      -31.357147  0.011107 -1.963368  0.075600
   scf:    2      -31.357228      -31.357196      -31.357196  0.002540 -1.893731  0.018561
   scf:    3      -31.357201      -31.357199      -31.357199  0.000503 -1.907420  0.000068
   scf:    4      -31.357199      -31.357199      -31.357199  0.000001 -1.907413  0.000047

SCF Convergence by DM+H criterion
max |DM_out - DM_in|         :     0.0000007714
max |H_out - H_in|      (eV) :     0.0000473646
SCF cycle converged after 4 iterations

Using DM_out to compute the final energy and forces
 E_bs from EDM:  -19.399586401182518     
No. of atoms with KB's overlaping orbs in proc 0. Max # of overlaps:       2      10

siesta: E_KS(eV) =              -31.3572

siesta: Atomic forces (eV/Ang):
----------------------------------------
   Tot    0.005114    0.000000   -0.000000
----------------------------------------
   Max    2.094409
   Res    1.207733    sqrt( Sum f_i^2 / 3N )
----------------------------------------
   Max    2.094409    constrained

Stress tensor Voigt[x,y,z,yz,xz,xy] (kbar):        0.36       -0.00       -0.00        0.00       -0.00       -0.00
(Free)E + p*V (eV/cell)      -31.9518
Target enthalpy (eV/cell)      -31.3572

                     ====================================
                        Begin FC step =      8
                         displace atom 2
                         in direction 1 by  0.021167 Ang
                     ====================================

outcell: Unit cell vectors (Ang):
       20.000000    0.000000    0.000000
        0.000000   20.000000    0.000000
        0.000000    0.000000   20.000000

outcell: Cell vector modules (Ang)   :   20.000000   20.000000   20.000000
outcell: Cell angles (23,13,12) (deg):     90.0000     90.0000     90.0000
outcell: Cell volume (Ang**3)        :   8000.0000
<dSpData1D:S at geom step 8
  <sparsity:sparsity for geom step 8
    nrows_g=10 nrows=4 sparsity=.4000 nnzs=40, refcount: 7>
  <dData1D:(new from dSpData1D) n=40, refcount: 1>
refcount: 1>
new_DM -- step:     9
Initializing Density Matrix...

Attempting to read DM from file... Succeeded...
DM from file:
<dSpData2D:IO-DM: H2_hessian.DM
  <sparsity:IO-DM: H2_hessian.DM
    nrows_g=10 nrows=4 sparsity=.4000 nnzs=40, refcount: 1>
  <dData2D:(new from dSpData2D) n=40 m=1, refcount: 1>
refcount: 1>
DM to be used:
<dSpData2D:Re-structured SpM
  <sparsity:sparsity for geom step 8
    nrows_g=10 nrows=4 sparsity=.4000 nnzs=40, refcount: 9>
  <dData2D:(new in restruct) n=40 m=1, refcount: 1>
refcount: 1>
Note: For starting DM, Qtot, Tr[D*S] =          2.00000000          1.98474713
No. of atoms with KB's overlaping orbs in proc 0. Max # of overlaps:       2      10

InitMesh: MESH = 192 x 192 x 192 = 7077888
InitMesh: Mesh cutoff (required, used) =   250.000   254.709 Ry
New grid distribution [1]: sub = 2
New grid distribution [2]: sub = 2
New grid distribution [3]: sub = 2
Setting up quadratic distribution...

        iscf     Eharris(eV)        E_KS(eV)     FreeEng(eV)     dDmax    Ef(eV) dHmax(eV)
   scf:    1      -31.251760      -31.251226      -31.251226  0.011120 -1.819769  0.072132
   scf:    2      -31.251301      -31.251271      -31.251271  0.002561 -1.886063  0.017600
   scf:    3      -31.251276      -31.251274      -31.251274  0.000502 -1.873070  0.000058
   scf:    4      -31.251274      -31.251274      -31.251274  0.000001 -1.873069  0.000046

SCF Convergence by DM+H criterion
max |DM_out - DM_in|         :     0.0000012158
max |H_out - H_in|      (eV) :     0.0000463076
SCF cycle converged after 4 iterations

Using DM_out to compute the final energy and forces
 E_bs from EDM:  -19.023767506908619     
No. of atoms with KB's overlaping orbs in proc 0. Max # of overlaps:       2      10

siesta: E_KS(eV) =              -31.2513

siesta: Atomic forces (eV/Ang):
----------------------------------------
   Tot   -0.002766   -0.000000   -0.000000
----------------------------------------
   Max    2.880263
   Res    1.662122    sqrt( Sum f_i^2 / 3N )
----------------------------------------
   Max    2.880263    constrained

Stress tensor Voigt[x,y,z,yz,xz,xy] (kbar):        0.52       -0.00       -0.00       -0.00       -0.00       -0.00
(Free)E + p*V (eV/cell)      -32.1094
Target enthalpy (eV/cell)      -31.2513

                     ====================================
                        Begin FC step =      9
                         displace atom 2
                         in direction 2 by -0.021167 Ang
                     ====================================

outcell: Unit cell vectors (Ang):
       20.000000    0.000000    0.000000
        0.000000   20.000000    0.000000
        0.000000    0.000000   20.000000

outcell: Cell vector modules (Ang)   :   20.000000   20.000000   20.000000
outcell: Cell angles (23,13,12) (deg):     90.0000     90.0000     90.0000
outcell: Cell volume (Ang**3)        :   8000.0000
<dSpData1D:S at geom step 9
  <sparsity:sparsity for geom step 9
    nrows_g=10 nrows=4 sparsity=.4000 nnzs=40, refcount: 7>
  <dData1D:(new from dSpData1D) n=40, refcount: 1>
refcount: 1>
new_DM -- step:    10
Initializing Density Matrix...

Attempting to read DM from file... Succeeded...
DM from file:
<dSpData2D:IO-DM: H2_hessian.DM
  <sparsity:IO-DM: H2_hessian.DM
    nrows_g=10 nrows=4 sparsity=.4000 nnzs=40, refcount: 1>
  <dData2D:(new from dSpData2D) n=40 m=1, refcount: 1>
refcount: 1>
DM to be used:
<dSpData2D:Re-structured SpM
  <sparsity:sparsity for geom step 9
    nrows_g=10 nrows=4 sparsity=.4000 nnzs=40, refcount: 9>
  <dData2D:(new in restruct) n=40 m=1, refcount: 1>
refcount: 1>
No. of atoms with KB's overlaping orbs in proc 0. Max # of overlaps:       2      10

InitMesh: MESH = 192 x 192 x 192 = 7077888
InitMesh: Mesh cutoff (required, used) =   250.000   254.709 Ry
New grid distribution [1]: sub = 2
New grid distribution [2]: sub = 2
New grid distribution [3]: sub = 2
Setting up quadratic distribution...

        iscf     Eharris(eV)        E_KS(eV)     FreeEng(eV)     dDmax    Ef(eV) dHmax(eV)
   scf:    1      -31.307780      -31.307771      -31.307771  0.000346 -1.889228  0.000865
   scf:    2      -31.307771      -31.307771      -31.307771  0.000031 -1.890023  0.000212
   scf:    3      -31.307771      -31.307771      -31.307771  0.000006 -1.889872  0.000041

SCF Convergence by DM+H criterion
max |DM_out - DM_in|         :     0.0000057429
max |H_out - H_in|      (eV) :     0.0000407315
SCF cycle converged after 3 iterations

Using DM_out to compute the final energy and forces
 E_bs from EDM:  -19.206265312518305     
No. of atoms with KB's overlaping orbs in proc 0. Max # of overlaps:       2      10

siesta: E_KS(eV) =              -31.3078

siesta: Atomic forces (eV/Ang):
----------------------------------------
   Tot    0.000038    0.000955   -0.000000
----------------------------------------
   Max    2.514554
   Res    1.452199    sqrt( Sum f_i^2 / 3N )
----------------------------------------
   Max    2.514554    constrained

Stress tensor Voigt[x,y,z,yz,xz,xy] (kbar):        0.44        0.00       -0.00        0.00       -0.00       -0.01
(Free)E + p*V (eV/cell)      -32.0401
Target enthalpy (eV/cell)      -31.3078

                     ====================================
                        Begin FC step =     10
                         displace atom 2
                         in direction 2 by  0.021167 Ang
                     ====================================

outcell: Unit cell vectors (Ang):
       20.000000    0.000000    0.000000
        0.000000   20.000000    0.000000
        0.000000    0.000000   20.000000

outcell: Cell vector modules (Ang)   :   20.000000   20.000000   20.000000
outcell: Cell angles (23,13,12) (deg):     90.0000     90.0000     90.0000
outcell: Cell volume (Ang**3)        :   8000.0000
<dSpData1D:S at geom step 10
  <sparsity:sparsity for geom step 10
    nrows_g=10 nrows=4 sparsity=.4000 nnzs=40, refcount: 7>
  <dData1D:(new from dSpData1D) n=40, refcount: 1>
refcount: 1>
new_DM -- step:    11
Initializing Density Matrix...

Attempting to read DM from file... Succeeded...
DM from file:
<dSpData2D:IO-DM: H2_hessian.DM
  <sparsity:IO-DM: H2_hessian.DM
    nrows_g=10 nrows=4 sparsity=.4000 nnzs=40, refcount: 1>
  <dData2D:(new from dSpData2D) n=40 m=1, refcount: 1>
refcount: 1>
DM to be used:
<dSpData2D:Re-structured SpM
  <sparsity:sparsity for geom step 10
    nrows_g=10 nrows=4 sparsity=.4000 nnzs=40, refcount: 9>
  <dData2D:(new in restruct) n=40 m=1, refcount: 1>
refcount: 1>
No. of atoms with KB's overlaping orbs in proc 0. Max # of overlaps:       2      10

InitMesh: MESH = 192 x 192 x 192 = 7077888
InitMesh: Mesh cutoff (required, used) =   250.000   254.709 Ry
New grid distribution [1]: sub = 2
New grid distribution [2]: sub = 2
New grid distribution [3]: sub = 2
Setting up quadratic distribution...

        iscf     Eharris(eV)        E_KS(eV)     FreeEng(eV)     dDmax    Ef(eV) dHmax(eV)
   scf:    1      -31.307780      -31.307771      -31.307771  0.000346 -1.889228  0.000865
   scf:    2      -31.307771      -31.307771      -31.307771  0.000031 -1.890023  0.000212
   scf:    3      -31.307771      -31.307771      -31.307771  0.000006 -1.889872  0.000041

SCF Convergence by DM+H criterion
max |DM_out - DM_in|         :     0.0000057429
max |H_out - H_in|      (eV) :     0.0000407315
SCF cycle converged after 3 iterations

Using DM_out to compute the final energy and forces
 E_bs from EDM:  -19.206265312518298     
No. of atoms with KB's overlaping orbs in proc 0. Max # of overlaps:       2      10

siesta: E_KS(eV) =              -31.3078

siesta: Atomic forces (eV/Ang):
----------------------------------------
   Tot    0.000038   -0.000955   -0.000000
----------------------------------------
   Max    2.514554
   Res    1.452199    sqrt( Sum f_i^2 / 3N )
----------------------------------------
   Max    2.514554    constrained

Stress tensor Voigt[x,y,z,yz,xz,xy] (kbar):        0.44        0.00       -0.00       -0.00       -0.00        0.01
(Free)E + p*V (eV/cell)      -32.0401
Target enthalpy (eV/cell)      -31.3078

                     ====================================
                        Begin FC step =     11
                         displace atom 2
                         in direction 3 by -0.021167 Ang
                     ====================================

outcell: Unit cell vectors (Ang):
       20.000000    0.000000    0.000000
        0.000000   20.000000    0.000000
        0.000000    0.000000   20.000000

outcell: Cell vector modules (Ang)   :   20.000000   20.000000   20.000000
outcell: Cell angles (23,13,12) (deg):     90.0000     90.0000     90.0000
outcell: Cell volume (Ang**3)        :   8000.0000
<dSpData1D:S at geom step 11
  <sparsity:sparsity for geom step 11
    nrows_g=10 nrows=4 sparsity=.4000 nnzs=40, refcount: 7>
  <dData1D:(new from dSpData1D) n=40, refcount: 1>
refcount: 1>
new_DM -- step:    12
Initializing Density Matrix...

Attempting to read DM from file... Succeeded...
DM from file:
<dSpData2D:IO-DM: H2_hessian.DM
  <sparsity:IO-DM: H2_hessian.DM
    nrows_g=10 nrows=4 sparsity=.4000 nnzs=40, refcount: 1>
  <dData2D:(new from dSpData2D) n=40 m=1, refcount: 1>
refcount: 1>
DM to be used:
<dSpData2D:Re-structured SpM
  <sparsity:sparsity for geom step 11
    nrows_g=10 nrows=4 sparsity=.4000 nnzs=40, refcount: 9>
  <dData2D:(new in restruct) n=40 m=1, refcount: 1>
refcount: 1>
No. of atoms with KB's overlaping orbs in proc 0. Max # of overlaps:       2      10

InitMesh: MESH = 192 x 192 x 192 = 7077888
InitMesh: Mesh cutoff (required, used) =   250.000   254.709 Ry
New grid distribution [1]: sub = 2
New grid distribution [2]: sub = 2
New grid distribution [3]: sub = 2
Setting up quadratic distribution...

        iscf     Eharris(eV)        E_KS(eV)     FreeEng(eV)     dDmax    Ef(eV) dHmax(eV)
   scf:    1      -31.307780      -31.307771      -31.307771  0.000346 -1.889228  0.000865
   scf:    2      -31.307771      -31.307771      -31.307771  0.000031 -1.890023  0.000212
   scf:    3      -31.307771      -31.307771      -31.307771  0.000006 -1.889872  0.000041

SCF Convergence by DM+H criterion
max |DM_out - DM_in|         :     0.0000057429
max |H_out - H_in|      (eV) :     0.0000407315
SCF cycle converged after 3 iterations

Using DM_out to compute the final energy and forces
 E_bs from EDM:  -19.206265312518500     
No. of atoms with KB's overlaping orbs in proc 0. Max # of overlaps:       2      10

siesta: E_KS(eV) =              -31.3078

siesta: Atomic forces (eV/Ang):
----------------------------------------
   Tot    0.000038    0.000000    0.000955
----------------------------------------
   Max    2.514554
   Res    1.452199    sqrt( Sum f_i^2 / 3N )
----------------------------------------
   Max    2.514554    constrained

Stress tensor Voigt[x,y,z,yz,xz,xy] (kbar):        0.44       -0.00        0.00        0.00       -0.01       -0.00
(Free)E + p*V (eV/cell)      -32.0401
Target enthalpy (eV/cell)      -31.3078

                     ====================================
                        Begin FC step =     12
                         displace atom 2
                         in direction 3 by  0.021167 Ang
                     ====================================

outcell: Unit cell vectors (Ang):
       20.000000    0.000000    0.000000
        0.000000   20.000000    0.000000
        0.000000    0.000000   20.000000

outcell: Cell vector modules (Ang)   :   20.000000   20.000000   20.000000
outcell: Cell angles (23,13,12) (deg):     90.0000     90.0000     90.0000
outcell: Cell volume (Ang**3)        :   8000.0000
<dSpData1D:S at geom step 12
  <sparsity:sparsity for geom step 12
    nrows_g=10 nrows=4 sparsity=.4000 nnzs=40, refcount: 7>
  <dData1D:(new from dSpData1D) n=40, refcount: 1>
refcount: 1>
new_DM -- step:    13
Initializing Density Matrix...

Attempting to read DM from file... Succeeded...
DM from file:
<dSpData2D:IO-DM: H2_hessian.DM
  <sparsity:IO-DM: H2_hessian.DM
    nrows_g=10 nrows=4 sparsity=.4000 nnzs=40, refcount: 1>
  <dData2D:(new from dSpData2D) n=40 m=1, refcount: 1>
refcount: 1>
DM to be used:
<dSpData2D:Re-structured SpM
  <sparsity:sparsity for geom step 12
    nrows_g=10 nrows=4 sparsity=.4000 nnzs=40, refcount: 9>
  <dData2D:(new in restruct) n=40 m=1, refcount: 1>
refcount: 1>
No. of atoms with KB's overlaping orbs in proc 0. Max # of overlaps:       2      10

InitMesh: MESH = 192 x 192 x 192 = 7077888
InitMesh: Mesh cutoff (required, used) =   250.000   254.709 Ry
New grid distribution [1]: sub = 2
New grid distribution [2]: sub = 2
New grid distribution [3]: sub = 2
Setting up quadratic distribution...

        iscf     Eharris(eV)        E_KS(eV)     FreeEng(eV)     dDmax    Ef(eV) dHmax(eV)
   scf:    1      -31.307780      -31.307771      -31.307771  0.000346 -1.889228  0.000865
   scf:    2      -31.307771      -31.307771      -31.307771  0.000031 -1.890023  0.000212
   scf:    3      -31.307771      -31.307771      -31.307771  0.000006 -1.889872  0.000041

SCF Convergence by DM+H criterion
max |DM_out - DM_in|         :     0.0000057429
max |H_out - H_in|      (eV) :     0.0000407315
SCF cycle converged after 3 iterations

Using DM_out to compute the final energy and forces
 E_bs from EDM:  -19.206265312518475     
No. of atoms with KB's overlaping orbs in proc 0. Max # of overlaps:       2      10

siesta: E_KS(eV) =              -31.3078

siesta: Atomic forces (eV/Ang):
----------------------------------------
   Tot    0.000038    0.000000   -0.000955
----------------------------------------
   Max    2.514554
   Res    1.452199    sqrt( Sum f_i^2 / 3N )
----------------------------------------
   Max    2.514554    constrained

Stress tensor Voigt[x,y,z,yz,xz,xy] (kbar):        0.44       -0.00        0.00       -0.00        0.01       -0.00
(Free)E + p*V (eV/cell)      -32.0401
Target enthalpy (eV/cell)      -31.3078

siesta: Program's energy decomposition (eV):
siesta: Ebs     =       -19.206251
siesta: Eions   =        61.893469
siesta: Ena     =        28.956440
siesta: Ekin    =        26.848934
siesta: Enl     =        -4.394908
siesta: Eso     =         0.000000
siesta: Edftu   =         0.000000
siesta: DEna    =        -3.475404
siesta: DUscf   =         0.411283
siesta: DUext   =         0.000000
siesta: Ex      =       -16.529930
siesta: Ec      =        -1.230717
siesta: Exc     =       -17.760647
siesta: EbV     =         0.000000
siesta: eta*DQ  =         0.000000
siesta: Emadel  =         0.000000
siesta: Emeta   =         0.000000
siesta: Emolmec =         0.000000
siesta: Ekinion =         0.000000
siesta: Eharris =       -31.307771
siesta: Etot    =       -31.307771
siesta: FreeEng =       -31.307771

siesta: Final energy (eV):
siesta:  Band Struct. =     -19.206251
siesta:       Kinetic =      26.848934
siesta:       Hartree =      29.583995
siesta:         Edftu =       0.000000
siesta:       Eso     =       0.000000
siesta:    Ext. field =       0.000000
siesta:         Exch. =     -16.529930
siesta:         Corr. =      -1.230717
siesta:     Bulk bias =       0.000000
siesta:   Exch.-corr. =     -17.760647
siesta:  Ion-electron =     -82.391849
siesta:       Ion-ion =      12.411795
siesta:       Ekinion =       0.000000
siesta: D3 dispersion =       0.000000
siesta:         Total =     -31.307771
siesta:         Fermi =      -1.889872

siesta: Atomic forces (eV/Ang):
siesta:      1    2.514554   -0.000000    0.060850
siesta:      2   -2.514516    0.000000   -0.061805
siesta: ----------------------------------------
siesta:    Tot    0.000038    0.000000   -0.000955

siesta: Stress tensor (static) (eV/Ang**3):
siesta:     0.000275   -0.000000    0.000007
siesta:    -0.000000   -0.000000   -0.000000
siesta:     0.000007   -0.000000    0.000000

siesta: Cell volume =       8000.000000 Ang**3

siesta: Pressure (static):
siesta:                Solid            Molecule  Units
siesta:          -0.00000100          0.00000000  Ry/Bohr**3
siesta:          -0.00009155          0.00000002  eV/Ang**3
siesta:          -0.14667448          0.00002933  kBar
(Free)E+ p_basis*V_orbitals  =         -30.795608
(Free)Eharris+ p_basis*V_orbitals  =         -30.795608

siesta: Electric dipole (a.u.)  =   -0.000006    0.000000    0.000031
siesta: Electric dipole (Debye) =   -0.000016    0.000000    0.000078

cite: Please see "H2_hessian.bib" for an exhaustive BiBTeX file.
cite: Please clearly indicate Siesta version in published work: 5.1-MaX-22-g14d40d4d4
cite: This calculation has made use of the following articles
cite: which are encouraged to be cited in a published work.
        Primary SIESTA paper
          DOI: www.doi.org/10.1088/0953-8984/14/11/302


>> End of run:  16-MAY-2024  13:37:50
Job completed
