<preamble>

<basis_specs>
===============================================================================
Pt                   Z=  78    Mass=  195.08        Charge= 0.17977+309
Lmxo=2 Lmxkb= 3    BasisType=split      Semic=T
L=0  Nsemic=1  Cnfigmx=6
          i=1  nzeta=1  polorb=0  (5s)  (semicore shell)
            splnorm:   0.15000    
               vcte:    40.000    
               rinn:    2.3061    
               qcoe:    0.0000    
               qyuk:    0.0000    
               qwid:   0.10000E-01
                rcs:    2.5624    
            lambdas:    1.0000    
          i=2  nzeta=2  polorb=0  (6s)  (to be polarized non-perturbatively)
            splnorm:   0.15000    
               vcte:    40.000    
               rinn:    5.9833    
               qcoe:    0.0000    
               qyuk:    0.0000    
               qwid:   0.10000E-01
                rcs:    6.6414      4.7671    
            lambdas:    1.0000      1.0000    
L=1  Nsemic=1  Cnfigmx=6
          i=1  nzeta=1  polorb=0  (5p)  (semicore shell)
            splnorm:   0.15000    
               vcte:    40.000    
               rinn:    2.7215    
               qcoe:    0.0000    
               qyuk:    0.0000    
               qwid:   0.10000E-01
                rcs:    3.0208    
            lambdas:    1.0000    
          i=2  nzeta=1  polorb=0  (6p)  (non-perturbative polarization shell)
            splnorm:   0.15000    
               vcte:    40.000    
               rinn:    5.9833    
               qcoe:   0.11460-309
               qyuk:   0.69533-309
               qwid:   0.11460-309
                rcs:    6.6414    
            lambdas:    1.0000    
L=2  Nsemic=0  Cnfigmx=5
          i=1  nzeta=2  polorb=0  (5d)
            splnorm:   0.15000    
               vcte:    40.000    
               rinn:    4.5654    
               qcoe:    0.0000    
               qyuk:    0.0000    
               qwid:   0.10000E-01
                rcs:    5.0676      3.3429    
            lambdas:    1.0000      1.0000    
-------------------------------------------------------------------------------
L=0  Nkbl=2  erefs: 0.17977+309 0.17977+309
L=1  Nkbl=2  erefs: 0.17977+309 0.17977+309
L=2  Nkbl=1  erefs: 0.17977+309
L=3  Nkbl=1  erefs: 0.17977+309
===============================================================================
</basis_specs>

<pseudopotential_header>
 Pt pb rel pcec
 ONCVPSP-3.2018-04-24Hamann's oncvpsp                        
 5s 2.00r r= 1.46/5p 6.00r r= 1.46/5d 9.00r r= 1.46/5f 0.00r r= 1.92/   5s:5p:5d:6s:
</pseudopotential_header>
</preamble>
Pt                            # Symbol
Pt                            # Label
   78                         # Atomic number
     18.0000000000                             # Valence charge
     195.080000000        # Mass 
     358.724557118        # Self energy 
   2   7                      # Lmax for basis, no. of nl orbitals 
   3  14 T                    # Lmax for projectors, no. of nl KB projectors, LJ projs?
# PAOs:__________________________
  0  5  1  0  2.000000   #orbital l, n, z, is_polarized, population
 500    0.5135021160436367E-02     2.562375559057747     # npts, delta, cutoff
     0.000000000000000        0.6591901975007988    
    0.5135021160436367E-02    0.6593014808534571    
    0.1027004232087273E-01    0.6596944155468315    
    0.1540506348130910E-01    0.6603490467820310    
    0.2054008464174547E-01    0.6612649367811063    
    0.2567510580218184E-01    0.6624414846572388    
    0.3081012696261820E-01    0.6638779204426905    
    0.3594514812305457E-01    0.6655733047460708    
    0.4108016928349094E-01    0.6675265292239976    
    0.4621519044392731E-01    0.6697363173316024    
    0.5135021160436368E-01    0.6722012252441831    
    0.5648523276480004E-01    0.6749196429199957    
    0.6162025392523641E-01    0.6778897952935351    
    0.6675527508567278E-01    0.6811097435945331    
    0.7189029624610914E-01    0.6845773867899203    
    0.7702531740654552E-01    0.6882904631467603    
    0.8216033856698188E-01    0.6922465519144406    
    0.8729535972741824E-01    0.6964430751244592    
    0.9243038088785462E-01    0.7008772995061594    
    0.9756540204829098E-01    0.7055463385166881    
    0.1027004232087274        0.7104471544833973    
    0.1078354443691637        0.7155765608568220    
    0.1129704655296001        0.7209312245722780    
    0.1181054866900365        0.7265076685180378    
    0.1232405078504728        0.7323022741079738    
    0.1283755290109092        0.7383112839564242    
    0.1335105501713456        0.7445308046530185    
    0.1386455713317819        0.7509568096350532    
    0.1437805924922183        0.7575851421549629    
    0.1489156136526547        0.7644115183403554    
    0.1540506348130910        0.7714315303439673    
    0.1591856559735274        0.7786406495808674    
    0.1643206771339638        0.7860342300501244    
    0.1694556982944001        0.7936075117381122    
    0.1745907194548365        0.8013556241005428    
    0.1797257406152729        0.8092735896202575    
    0.1848607617757092        0.8173563274377486    
    0.1899957829361456        0.8255986570513177    
    0.1951308040965820        0.8339953020837283    
    0.2002658252570183        0.8425408941121476    
    0.2054008464174547        0.8512299765581378    
    0.2105358675778911        0.8600570086343843    
    0.2156708887383274        0.8690163693448338    
    0.2208059098987638        0.8781023615348552    
    0.2259409310592002        0.8873092159879981    
    0.2310759522196365        0.8966310955658974    
    0.2362109733800729        0.9060620993878437    
    0.2413459945405093        0.9155962670464906    
    0.2464810157009456        0.9252275828561715    
    0.2516160368613820        0.9349499801302570    
    0.2567510580218184        0.9447573454839749    
    0.2618860791822548        0.9546435231590976    
    0.2670211003426911        0.9646023193668903    
    0.2721561215031275        0.9746275066457090    
    0.2772911426635639        0.9847128282296096    
    0.2824261638240002        0.9948520024243809    
    0.2875611849844366         1.005038726987342    
    0.2926962061448730         1.015266683507323    
    0.2978312273053093         1.025529541781199    
    0.3029662484657457         1.035820964183399    
    0.3081012696261821         1.046134610024804    
    0.3132362907866184         1.056464139897474    
    0.3183713119470548         1.066803220001668    
    0.3235063331074912         1.077145526451649    
    0.3286413542679275         1.087484749556776    
    0.3337763754283639         1.097814598074445    
    0.3389113965888003         1.108128803431457    
    0.3440464177492366         1.118421123910436    
    0.3491814389096730         1.128685348797948    
    0.3543164600701094         1.138915302491052    
    0.3594514812305457         1.149104848559015    
    0.3645865023909821         1.159247893756998    
    0.3697215235514185         1.169338391988602    
    0.3748565447118548         1.179370348214135    
    0.3799915658722912         1.189337822301630    
    0.3851265870327276         1.199234932817620    
    0.3902616081931639         1.209055860754767    
    0.3953966293536003         1.218794853193542    
    0.4005316505140367         1.228446226895159    
    0.4056666716744730         1.238004371823114    
    0.4108016928349094         1.247463754590676    
    0.4159367139953458         1.256818921831821    
    0.4210717351557821         1.266064503493142    
    0.4262067563162185         1.275195216044362    
    0.4313417774766549         1.284205865605164    
    0.4364767986370912         1.293091350986110    
    0.4416118197975276         1.301846666641577    
    0.4467468409579640         1.310466905532628    
    0.4518818621184003         1.318947261897929    
    0.4570168832788367         1.327283033930834    
    0.4621519044392731         1.335469626360910    
    0.4672869255997094         1.343502552938248    
    0.4724219467601458         1.351377438818993    
    0.4775569679205822         1.359090022850639    
    0.4826919890810185         1.366636159755751    
    0.4878270102414549         1.374011822212835    
    0.4929620314018913         1.381213102833195    
    0.4980970525623276         1.388236216032767    
    0.5032320737227640         1.395077499797934    
    0.5083670948832004         1.401733417344500    
    0.5135021160436367         1.408200558669069    
    0.5186371372040731         1.414475641992220    
    0.5237721583645095         1.420555515092907    
    0.5289071795249458         1.426437156533682    
    0.5340422006853822         1.432117676776423    
    0.5391772218458186         1.437594319188313    
    0.5443122430062549         1.442864460938022    
    0.5494472641666913         1.447925613782007    
    0.5545822853271277         1.452775424741090    
    0.5597173064875640         1.457411676667465    
    0.5648523276480004         1.461832288702478    
    0.5699873488084368         1.466035316625545    
    0.5751223699688731         1.470018953094724    
    0.5802573911293095         1.473781527779560    
    0.5853924122897459         1.477321507386902    
    0.5905274334501822         1.480637495580459    
    0.5956624546106186         1.483728232795031    
    0.6007974757710550         1.486592595946400    
    0.6059324969314913         1.489229598037956    
    0.6110675180919277         1.491638387665229    
    0.6162025392523641         1.493818248419604    
    0.6213375604128004         1.495768598192588    
    0.6264725815732368         1.497488988382047    
    0.6316076027336732         1.498979103001941    
    0.6367426238941095         1.500238757697182    
    0.6418776450545459         1.501267898665292    
    0.6470126662149823         1.502066601486631    
    0.6521476873754186         1.502635069865026    
    0.6572827085358550         1.502973634280735    
    0.6624177296962914         1.503082750557712    
    0.6675527508567277         1.502962998347256    
    0.6726877720171641         1.502615079530113    
    0.6778227931776005         1.502039816539265    
    0.6829578143380368         1.501238150605623    
    0.6880928354984732         1.500211139928924    
    0.6932278566589096         1.498959957776185    
    0.6983628778193459         1.497485890510115    
    0.7034978989797823         1.495790335549969    
    0.7086329201402187         1.493874799267292    
    0.7137679413006550         1.491740894819132    
    0.7189029624610914         1.489390339921284    
    0.7240379836215278         1.486824954564204    
    0.7291730047819641         1.484046658674209    
    0.7343080259424005         1.481057469722671    
    0.7394430471028369         1.477859500285899    
    0.7445780682632732         1.474454955558434    
    0.7497130894237096         1.470846130822520    
    0.7548481105841460         1.467035408876516    
    0.7599831317445823         1.463025257425011    
    0.7651181529050187         1.458818226433464    
    0.7702531740654551         1.454416945450139    
    0.7753881952258914         1.449824120898162    
    0.7805232163863278         1.445042533356577    
    0.7856582375467642         1.440075034828810    
    0.7907932587072005         1.434924545780982    
    0.7959282798676369         1.429594052556301    
    0.8010633010280733         1.424086604482973    
    0.8061983221885096         1.418405311045426    
    0.8113333433489460         1.412553339045319    
    0.8164683645093824         1.406533909754861    
    0.8216033856698188         1.400350296065141    
    0.8267384068302551         1.394005819632139    
    0.8318734279906915         1.387503848023079    
    0.8370084491511279         1.380847791865707    
    0.8421434703115642         1.374041102003093    
    0.8472784914720006         1.367087266656493    
    0.8524135126324370         1.359989808598777    
    0.8575485337928733         1.352752282340866    
    0.8626835549533097         1.345378271333598    
    0.8678185761137461         1.337871385187403    
    0.8729535972741824         1.330235256912077    
    0.8780886184346188         1.322473540178929    
    0.8832236395950552         1.314589906607516    
    0.8883586607554915         1.306588043079123    
    0.8934936819159279         1.298471649079063    
    0.8986287030763643         1.290244434069866    
    0.9037637242368006         1.281910114897285    
    0.9088987453972370         1.273472413231085    
    0.9140337665576734         1.264935053042400    
    0.9191687877181097         1.256301758119510    
    0.9243038088785461         1.247576249623660    
    0.9294388300389825         1.238762243686662    
    0.9345738511994188         1.229863449051768    
    0.9397088723598552         1.220883564759368    
    0.9448438935202916         1.211826277878920    
    0.9499789146807279         1.202695261288472    
    0.9551139358411643         1.193494171503056    
    0.9602489570016007         1.184226646553162    
    0.9653839781620370         1.174896303914448    
    0.9705189993224734         1.165506738489690    
    0.9756540204829098         1.156061520644019    
    0.9807890416433461         1.146564194294277    
    0.9859240628037825         1.137018275053396    
    0.9910590839642189         1.127427248430505    
    0.9961941051246552         1.117794568087457    
     1.001329126285092         1.108123654152378    
     1.006464147445528         1.098417891590740    
     1.011599168605964         1.088680628634488    
     1.016734189766401         1.078915175269473    
     1.021869210926837         1.069124801781629    
     1.027004232087273         1.059312737361998    
     1.032139253247710         1.049482168770860    
     1.037274274408146         1.039636239060987    
     1.042409295568583         1.029778046360049    
     1.047544316729019         1.019910642712192    
     1.052679337889455         1.010037032978560    
     1.057814359049892         1.000160173796635    
     1.062949380210328        0.9902829725981001    
     1.068084401370764        0.9804082866849188    
     1.073219422531201        0.9705389223633264    
     1.078354443691637        0.9606776341351561    
     1.083489464852073        0.9508271239461160    
     1.088624486012510        0.9409900404903568    
     1.093759507172946        0.9311689785707873    
     1.098894528333383        0.9213664785144813    
     1.104029549493819        0.9115850256423736    
     1.109164570654255        0.9018270497925570    
     1.114299591814692        0.8920949248962886    
     1.119434612975128        0.8823909686058738    
     1.124569634135564        0.8727174419735625    
     1.129704655296001        0.8630765491804216    
     1.134839676456437        0.8534704373142439    
     1.139974697616874        0.8439011961954577    
     1.145109718777310        0.8343708582499443    
     1.150244739937746        0.8248813984277248    
     1.155379761098183        0.8154347341663242    
     1.160514782258619        0.8060327253977059    
     1.165649803419055        0.7966771745975609    
     1.170784824579492        0.7873698268757766    
     1.175919845739928        0.7781123701068190    
     1.181054866900364        0.7689064350988077    
     1.186189888060801        0.7597535958000151    
     1.191324909221237        0.7506553695415250    
     1.196459930381674        0.7416132173147442    
     1.201594951542110        0.7326285440824944    
     1.206729972702546        0.7237026991223074    
     1.211864993862983        0.7148369764006998    
     1.217000015023419        0.7060326149770721    
     1.222135036183855        0.6972907994358805    
     1.227270057344292        0.6886126603458810    
     1.232405078504728        0.6799992747449847    
     1.237540099665164        0.6714516666495123    
     1.242675120825601        0.6629708075865898    
     1.247810141986037        0.6545576171482603    
     1.252945163146474        0.6462129635661414    
     1.258080184306910        0.6379376643054130    
     1.263215205467346        0.6297324866767091    
     1.268350226627783        0.6215981484648421    
     1.273485247788219        0.6135353185731767    
     1.278620268948655        0.6055446176822453    
     1.283755290109092        0.5976266189216765    
     1.288890311269528        0.5897818485542368    
     1.294025332429965        0.5820107866707185    
     1.299160353590401        0.5743138678947556    
     1.304295374750837        0.5666914820965495    
     1.309430395911274        0.5591439751141652    
     1.314565417071710        0.5516716494817371    
     1.319700438232146        0.5442747651635208    
     1.324835459392583        0.5369535402926694    
     1.329970480553019        0.5297081519140501    
     1.335105501713455        0.5225387367302353    
     1.340240522873892        0.5154453918496024    
     1.345375544034328        0.5084281755359749    
     1.350510565194765        0.5014871079590647    
     1.355645586355201        0.4946221719447119    
     1.360780607515637        0.4878333137245141    
     1.365915628676074        0.4811204436841912    
     1.371050649836510        0.4744834371098481    
     1.376185670996946        0.4679221349317557    
     1.381320692157383        0.4614363444651567    
     1.386455713317819        0.4550258401474545    
     1.391590734478256        0.4486903642714148    
     1.396725755638692        0.4424296277141991    
     1.401860776799128        0.4362433106612145    
     1.406995797959565        0.4301310633235168    
     1.412130819120001        0.4240925065877299    
     1.417265840280437        0.4181272327016558    
     1.422400861440874        0.4122348062142906    
     1.427535882601310        0.4064147648359333    
     1.432670903761746        0.4006666204118935    
     1.437805924922183        0.3949898585166653    
     1.442940946082619        0.3893839383597756    
     1.448075967243056        0.3838482930550287    
     1.453210988403492        0.3783823318875654    
     1.458346009563928        0.3729854441388977    
     1.463481030724365        0.3676570030568816    
     1.468616051884801        0.3623963700438905    
     1.473751073045237        0.3572028990346769    
     1.478886094205674        0.3520759402129214    
     1.484021115366110        0.3470148435966836    
     1.489156136526546        0.3420189595875676    
     1.494291157686983        0.3370876387377977    
     1.499426178847419        0.3322202310179101    
     1.504561200007856        0.3274160854159107    
     1.509696221168292        0.3226745506779051    
     1.514831242328728        0.3179949757131149    
     1.519966263489165        0.3133767100762805    
     1.525101284649601        0.3088191041976127    
     1.530236305810037        0.3043215095774477    
     1.535371326970474        0.2998832790245178    
     1.540506348130910        0.2955037668894418    
     1.545641369291347        0.2911823292766487    
     1.550776390451783        0.2869183242578063    
     1.555911411612219        0.2827111120678648    
     1.561046432772656        0.2785600552965972    
     1.566181453933092        0.2744645190682505    
     1.571316475093528        0.2704238712120815    
     1.576451496253965        0.2664374824246311    
     1.581586517414401        0.2625047264233876    
     1.586721538574837        0.2586249800926252    
     1.591856559735274        0.2547976236212457    
     1.596991580895710        0.2510220406331556    
     1.602126602056147        0.2472976183104509    
     1.607261623216583        0.2436237475095189    
     1.612396644377019        0.2399998228702184    
     1.617531665537456        0.2364252429188125    
     1.622666686697892        0.2328994101644972    
     1.627801707858328        0.2294217311898976    
     1.632936729018765        0.2259916167355423    
     1.638071750179201        0.2226084817790459    
     1.643206771339638        0.2192717456086849    
     1.648341792500074        0.2159808318917807    
     1.653476813660510        0.2127351687379757    
     1.658611834820947        0.2095341887579125    
     1.663746855981383        0.2063773291171201    
     1.668881877141819        0.2032640315853998    
     1.674016898302256        0.2001937425819321    
     1.679151919462692        0.1971659132163740    
     1.684286940623128        0.1941799993258957    
     1.689421961783565        0.1912354615083336    
     1.694556982944001        0.1883317651517654    
     1.699692004104438        0.1854683804606154    
     1.704827025264874        0.1826447824783330    
     1.709962046425310        0.1798604511067383    
     1.715097067585747        0.1771148711223882    
     1.720232088746183        0.1744075321899568    
     1.725367109906619        0.1717379288727408    
     1.730502131067056        0.1691055606403301    
     1.735637152227492        0.1665099318737860    
     1.740772173387928        0.1639505518682974    
     1.745907194548365        0.1614269348334191    
     1.751042215708801        0.1589385998909297    
     1.756177236869238        0.1564850710706018    
     1.761312258029674        0.1540658773038700    
     1.766447279190110        0.1516805524154719    
     1.771582300350547        0.1493286351131224    
     1.776717321510983        0.1470096689754207    
     1.781852342671419        0.1447232024380500    
     1.786987363831856        0.1424687887782781    
     1.792122384992292        0.1402459860978561    
     1.797257406152729        0.1380543573044231    
     1.802392427313165        0.1358934700915506    
     1.807527448473601        0.1337628969173681    
     1.812662469634038        0.1316622149819143    
     1.817797490794474        0.1295910062032170    
     1.822932511954910        0.1275488571923236    
     1.828067533115347        0.1255353592271564    
     1.833202554275783        0.1235501082253595    
     1.838337575436219        0.1215927047161079    
     1.843472596596656        0.1196627538110863    
     1.848607617757092        0.1177598651745340    
     1.853742638917529        0.1158836529924932    
     1.858877660077965        0.1140337359412464    
     1.864012681238401        0.1122097371550804    
     1.869147702398838        0.1104112841933532    
     1.874282723559274        0.1086380090069266    
     1.879417744719710        0.1068895479039981    
     1.884552765880147        0.1051655415153888    
     1.889687787040583        0.1034656347593274    
     1.894822808201019        0.1017894768057481    
     1.899957829361456        0.1001367210401545    
     1.905092850521892        0.9850702502708580E-01
     1.910227871682329        0.9690005047320166E-01
     1.915362892842765        0.9531546319003890E-01
     1.920497914003201        0.9375293305645323E-01
     1.925632935163638        0.9221213398079837E-01
     1.930767956324074        0.9069274386284257E-01
     1.935902977484510        0.8919444455546530E-01
     1.941037998644947        0.8771692182616120E-01
     1.946173019805383        0.8625986531837014E-01
     1.951308040965820        0.8482296851269591E-01
     1.956443062126256        0.8340592868793496E-01
     1.961578083286692        0.8200844688205070E-01
     1.966713104447129        0.8063022785304505E-01
     1.971848125607565        0.7927098003981098E-01
     1.976983146768001        0.7793041552290099E-01
     1.982118167928438        0.7660824998527656E-01
     1.987253189088874        0.7530420267306821E-01
     1.992388210249310        0.7401799635633145E-01
     1.997523231409747        0.7274935728989601E-01
     2.002658252570183        0.7149801517415073E-01
     2.007793273730619        0.7026370311595735E-01
     2.012928294891056        0.6904615758961040E-01
     2.018063316051492        0.6784511839790883E-01
     2.023198337211929        0.6666032863333037E-01
     2.028333358372365        0.6549153463925282E-01
     2.033468379532802        0.6433848597135376E-01
     2.038603400693238        0.6320093535911057E-01
     2.043738421853674        0.6207863866750948E-01
     2.048873443014111        0.6097135485882599E-01
     2.054008464174547        0.5987884595458807E-01
     2.059143485334983        0.5880087699772476E-01
     2.064278506495420        0.5773721601486925E-01
     2.069413527655856        0.5668763397893115E-01
     2.074548548816292        0.5565190477173514E-01
     2.079683569976729        0.5462980514693225E-01
     2.084818591137165        0.5362111469310400E-01
     2.089953612297601        0.5262561579707374E-01
     2.095088633458038        0.5164309360749930E-01
     2.100223654618474        0.5067333599857025E-01
     2.105358675778910        0.4971613353401360E-01
     2.110493696939347        0.4877127943130932E-01
     2.115628718099783        0.4783856952615063E-01
     2.120763739260220        0.4691780223718431E-01
     2.125898760420656        0.4600877853090030E-01
     2.131033781581092        0.4511130188683991E-01
     2.136168802741529        0.4422517826303202E-01
     2.141303823901965        0.4335021606169728E-01
     2.146438845062402        0.4248622609522987E-01
     2.151573866222838        0.4163302155236303E-01
     2.156708887383274        0.4079041796465508E-01
     2.161843908543711        0.3995823317321786E-01
     2.166978929704147        0.3913628729571832E-01
     2.172113950864583        0.3832440269366973E-01
     2.177248972025020        0.3752240393991745E-01
     2.182383993185456        0.3673011778644787E-01
     2.187519014345892        0.3594737313244897E-01
     2.192654035506329        0.3517400099264080E-01
     2.197789056666765        0.3440983446590577E-01
     2.202924077827201        0.3365470870411837E-01
     2.208059098987638        0.3290846088129490E-01
     2.213194120148074        0.3217093016299915E-01
     2.218329141308511        0.3144195767601224E-01
     2.223464162468947        0.3072138647830615E-01
     2.228599183629383        0.3000906152921897E-01
     2.233734204789820        0.2930482965994345E-01
     2.238869225950256        0.2860853954427119E-01
     2.244004247110693        0.2792004166959290E-01
     2.249139268271129        0.2723918830819798E-01
     2.254274289431565        0.2656583348878458E-01
     2.259409310592002        0.2589983296826385E-01
     2.264544331752438        0.2524104420381821E-01
     2.269679352912874        0.2458932632521311E-01
     2.274814374073311        0.2394454010738750E-01
     2.279949395233747        0.2330654794327161E-01
     2.285084416394183        0.2267521381687245E-01
     2.290219437554620        0.2205040327661171E-01
     2.295354458715056        0.2143198340891204E-01
     2.300489479875492        0.2081982281203659E-01
     2.305624501035929        0.2021379157017257E-01
     2.310759522196365        0.1961376122775549E-01
     2.315894543356802        0.1901960476403930E-01
     2.321029564517238        0.1843119656798195E-01
     2.326164585677674        0.1784841242724462E-01
     2.331299606838111        0.1727112986723547E-01
     2.336434627998547        0.1669923079257555E-01
     2.341569649158984        0.1613260976094341E-01
     2.346704670319420        0.1557118830080085E-01
     2.351839691479856        0.1501493135342898E-01
     2.356974712640293        0.1446386108027353E-01
     2.362109733800729        0.1391806525915947E-01
     2.367244754961165        0.1337769975735453E-01
     2.372379776121602        0.1284298595740204E-01
     2.377514797282038        0.1231420452765772E-01
     2.382649818442474        0.1179168691788903E-01
     2.387784839602911        0.1127580571895477E-01
     2.392919860763347        0.1076696472993689E-01
     2.398054881923783        0.1026558930742310E-01
     2.403189903084220        0.9772117357418958E-02
     2.408324924244656        0.9286991172118441E-02
     2.413459945405092        0.8810650203087803E-02
     2.418594966565529        0.8343524788643104E-02
     2.423729987725965        0.7886030806332494E-02
     2.428865008886402        0.7438565193590561E-02
     2.434000030046838        0.7001502264698560E-02
     2.439135051207275        0.6575190745776493E-02
     2.444270072367711        0.6159951448547190E-02
     2.449405093528147        0.5756075505930326E-02
     2.454540114688584        0.5363823096590774E-02
     2.459675135849020        0.4983422590495353E-02
     2.464810157009456        0.4615070052542713E-02
     2.469945178169893        0.4258929045980363E-02
     2.475080199330329        0.3915130681188555E-02
     2.480215220490765        0.3583773858130930E-02
     2.485350241651202        0.3264925651827221E-02
     2.490485262811638        0.2958621788972744E-02
     2.495620283972074        0.2664867159157548E-02
     2.500755305132511        0.2383636294164635E-02
     2.505890326292947        0.2114873730223965E-02
     2.511025347453383        0.1858494134630613E-02
     2.516160368613820        0.1614382017835469E-02
     2.521295389774256        0.1382390740496532E-02
     2.526430410934693        0.1162340308930506E-02
     2.531565432095129        0.9540130075893317E-03
     2.536700453255565        0.7571449236751793E-03
     2.541835474416002        0.5714089469413866E-03
     2.546970495576438        0.3963776920251858E-03
     2.552105516736875        0.2314292342888834E-03
     2.557240537897311        0.7541777661013033E-04
     2.562375559057747         0.000000000000000    
  0  6  1  0  1.000000   #orbital l, n, z, is_polarized, population
 500    0.1330945156401527E-01     6.641416330443619     # npts, delta, cutoff
     0.000000000000000        0.3673444601410704    
    0.1330945156401527E-01    0.3677480577032090    