<preamble>

<basis_specs>
===============================================================================
C                    Z=   6    Mass=  12.011        Charge= 0.17977+309
Lmxo=1 Lmxkb= 1    BasisType=split      Semic=F
L=0  Nsemic=0  Cnfigmx=2
          i=1  nzeta=1  polorb=0  (2s)
            splnorm:   0.15000    
               vcte:    40.000    
               rinn:    3.6804    
               qcoe:    0.0000    
               qyuk:    0.0000    
               qwid:   0.10000E-01
                rcs:    4.0894    
            lambdas:    1.0000    
L=1  Nsemic=0  Cnfigmx=2
          i=1  nzeta=1  polorb=0  (2p)
            splnorm:   0.15000    
               vcte:    40.000    
               rinn:    4.3554    
               qcoe:    0.0000    
               qyuk:    0.0000    
               qwid:   0.10000E-01
                rcs:    4.8393    
            lambdas:    1.0000    
-------------------------------------------------------------------------------
L=0  Nkbl=1  erefs: 0.17977+309
L=1  Nkbl=1  erefs: 0.17977+309
===============================================================================
</basis_specs>

<pseudopotential_header>
 C  pb nrl pcec
 ONCVPSP-3.2017-10-31Hamann's oncvpsp                        
 2s 2.00  r= 1.20/2p 2.00  r= 1.26/                                     2s:2p:
</pseudopotential_header>
</preamble>
C                             # Symbol
C                             # Label
    6                         # Atomic number
     4.00000000000                             # Valence charge
     12.0110000000        # Mass 
     20.7385029701        # Self energy 
   1   2                      # Lmax for basis, no. of nl orbitals 
   1   4                      # Lmax for projectors, no. of nl KB projectors
# PAOs:__________________________
  0  2  1  0  2.000000   #orbital l, n, z, is_polarized, population
 500    0.8195101594924646E-02     4.089355695867399     # npts, delta, cutoff
     0.000000000000000        0.3720108922085550    
    0.8195101594924646E-02    0.3721511789363367    
    0.1639020318984929E-01    0.3725792669942781    
    0.2458530478477394E-01    0.3732920867119111    
    0.3278040637969858E-01    0.3742886451206618    
    0.4097550797462323E-01    0.3755675557266037    
    0.4917060956954787E-01    0.3771270407500636    
    0.5736571116447252E-01    0.3789649345671015    
    0.6556081275939717E-01    0.3810786879638129    
    0.7375591435432181E-01    0.3834653731484075    
    0.8195101594924646E-01    0.3861216894974249    
    0.9014611754417111E-01    0.3890439700164208    
    0.9834121913909574E-01    0.3922281884949632    
    0.1065363207340204        0.3956699673342657    
    0.1147314223289450        0.3993645860241288    
    0.1229265239238697        0.4033069902441644    
    0.1311216255187943        0.4074918015627030    
    0.1393167271137190        0.4119133277052771    
    0.1475118287086436        0.4165655733632211    
    0.1557069303035683        0.4214422515116762    
    0.1639020318984929        0.4265367952051825    
    0.1720971334934176        0.4318423698180850    
    0.1802922350883422        0.4373518856961349    
    0.1884873366832669        0.4430580111849842    
    0.1966824382781915        0.4489531860007432    
    0.2048775398731161        0.4550296349073576    
    0.2130726414680408        0.4612793816653127    
    0.2212677430629654        0.4676942632160598    
    0.2294628446578901        0.4742659440665976    
    0.2376579462528147        0.4809859308387886    
    0.2458530478477394        0.4878455869483106    
    0.2540481494426640        0.4948361473785557    
    0.2622432510375887        0.5019487335153487    
    0.2704383526325133        0.5091743680090086    
    0.2786334542274380        0.5165039896310640    
    0.2868285558223626        0.5239284680937878    
    0.2950236574172873        0.5314386188016816    
    0.3032187590122119        0.5390252175050768    
    0.3114138606071366        0.5466790148271164    
    0.3196089622020612        0.5543907506365595    
    0.3278040637969858        0.5621511682400313    
    0.3359991653919105        0.5699510283686188    
    0.3441942669868351        0.5777811229349489    
    0.3523893685817598        0.5856322885381865    
    0.3605844701766844        0.5934954196956789    
    0.3687795717716091        0.6013614817812392    
    0.3769746733665337        0.6092215236513506    
    0.3851697749614584        0.6170666899418163    
    0.3933648765563830        0.6248882330185970    
    0.4015599781513076        0.6326775245677898    
    0.4097550797462323        0.6404260668108349    
    0.4179501813411569        0.6481255033321753    
    0.4261452829360816        0.6557676295076618    
    0.4343403845310062        0.6633444025230220    
    0.4425354861259309        0.6708479509727286    
    0.4507305877208555        0.6782705840305221    
    0.4589256893157801        0.6856048001837758    
    0.4671207909107048        0.6928432955247551    
    0.4753158925056294        0.6999789715926661    
    0.4835109941005541        0.7070049427611779    
    0.4917060956954787        0.7139145431669167    
    0.4999011972904034        0.7207013331751451    
    0.5080962988853280        0.7273591053796096    
    0.5162914004802527        0.7338818901342331    
    0.5244865020751773        0.7402639606150584    
    0.5326816036701020        0.7464998374115249    
    0.5408767052650266        0.7525842926468717    
    0.5490718068599513        0.7585123536281301    
    0.5572669084548759        0.7642793060268644    
    0.5654620100498006        0.7698806965924879    
    0.5736571116447252        0.7753123354006615    
    0.5818522132396499        0.7805702976399539    
    0.5900473148345745        0.7856509249406094    
    0.5982424164294992        0.7905508262499071    
    0.6064375180244238        0.7952668782592617    
    0.6146326196193485        0.7997962253888304    
    0.6228277212142731        0.8041362793359823    
    0.6310228228091977        0.8082847181945940    
    0.6392179244041224        0.8122394851526917    
    0.6474130259990470        0.8159987867764362    
    0.6556081275939717        0.8195610908890272    
    0.6638032291888963        0.8229251240534874    
    0.6719983307838210        0.8260898686687438    
    0.6801934323787456        0.8290545596888458    
    0.6883885339736703        0.8318186809754752    
    0.6965836355685949        0.8343819612942872    
    0.7047787371635196        0.8367443699659348    
    0.7129738387584442        0.8389061121829223    
    0.7211689403533689        0.8408676240037553    
    0.7293640419482935        0.8426295670361589    
    0.7375591435432182        0.8441928228214365    
    0.7457542451381428        0.8455584869324004    
    0.7539493467330675        0.8467278627976370    
    0.7621444483279921        0.8477024552652863    
    0.7703395499229168        0.8484839639199236    
    0.7785346515178414        0.8490742761666114    
    0.7867297531127659        0.8494754600966806    
    0.7949248547076906        0.8496897571503477    
    0.8031199563026152        0.8497195745918461    
    0.8113150578975399        0.8495674778133425    
    0.8195101594924645        0.8492361824845176    
    0.8277052610873892        0.8487285465652883    
    0.8359003626823138        0.8480475621997636    
    0.8440954642772385        0.8471963473555266    
    0.8522905658721631        0.8461781351233406    
    0.8604856674670878        0.8449962686906275    
    0.8686807690620124        0.8436541929358512    
    0.8768758706569371        0.8421554453377726    
    0.8850709722518617        0.8405036475624705    
    0.8932660738467864        0.8387024970703835    
    0.9014611754417110        0.8367557587639171    
    0.9096562770366357        0.8346672566959771    
    0.9178513786315603        0.8324408658595475    
    0.9260464802264849        0.8300805040780160    
    0.9342415818214096        0.8275901240154421    
    0.9424366834163342        0.8249737053253805    
    0.9506317850112589        0.8222352469561319    
    0.9588268866061835        0.8193787596295434    
    0.9670219882011082        0.8164082585096141    
    0.9752170897960328        0.8133277560762606    
    0.9834121913909575        0.8101412552186490    
    0.9916072929858821        0.8068527425612811    
    0.9998023945808068        0.8034661822803584    
     1.007997496175731        0.7999855092861531    
     1.016192597770656        0.7964146237874586    
     1.024387699365581        0.7927573856895093    
     1.032582800960505        0.7890176091607636    
     1.040777902555430        0.7851990575841681    
     1.048973004150355        0.7813054388081148    
     1.057168105745279        0.7773404007029250    
     1.065363207340204        0.7733075270278587    
     1.073558308935129        0.7692103336128249    
     1.081753410530053        0.7650522648581999    
     1.089948512124978        0.7608366905553856    
     1.098143613719903        0.7565669030300269    
     1.106338715314827        0.7522461146090627    
     1.114533816909752        0.7478774554121036    
     1.122728918504676        0.7434639714669220    
     1.130924020099601        0.7390086231481500    
     1.139119121694526        0.7345142839375948    
     1.147314223289450        0.7299837395038932    
     1.155509324884375        0.7254196870985211    
     1.163704426479300        0.7208247352644301    
     1.171899528074224        0.7162014038471918    
     1.180094629669149        0.7115521243253482    
     1.188289731264074        0.7068792404815523    
     1.196484832858998        0.7021850091576847    
     1.204679934453923        0.6974716013614262    
     1.212875036048848        0.6927411045130654    
     1.221070137643772        0.6879955256678351    
     1.229265239238697        0.6832367952785571    
     1.237460340833622        0.6784667703537097    
     1.245655442428546        0.6736872364170147    
     1.253850544023471        0.6688999094146154    
     1.262045645618395        0.6641064379588578    
     1.270240747213320        0.6593084056524320    
     1.278435848808245        0.6545073335230227    
     1.286630950403169        0.6497046826202051    
     1.294826051998094        0.6449018564796366    
     1.303021153593019        0.6401002031333586    
     1.311216255187943        0.6353010168444637    
     1.319411356782868        0.6305055397368123    
     1.327606458377793        0.6257149634418812    
     1.335801559972717        0.6209304308527809    
     1.343996661567642        0.6161530378156226    
     1.352191763162567        0.6113838346834615    
     1.360386864757491        0.6066238278311910    
     1.368581966352416        0.6018739811535093    
     1.376777067947341        0.5971352175153765    
     1.384972169542265        0.5924084201529567    
     1.393167271137190        0.5876944340322297    
     1.401362372732115        0.5829940671659479    
     1.409557474327039        0.5783080918888428    
     1.417752575921964        0.5736372460919091    
     1.425947677516888        0.5689822344166769    
     1.434142779111813        0.5643437294102845    
     1.442337880706738        0.5597223726422343    
     1.450532982301662        0.5551187757837047    
     1.458728083896587        0.5505335216503439    
     1.466923185491512        0.5459671652094663    
     1.475118287086436        0.5414202345526017    
     1.483313388681361        0.5368932318343470    
     1.491508490276286        0.5323866341785009    
     1.499703591871210        0.5279008945524417    
     1.507898693466135        0.5234364426107369    
     1.516093795061060        0.5189936855089592    
     1.524288896655984        0.5145730086886862    
     1.532483998250909        0.5101747766346555    
     1.540679099845834        0.5057993336050425    
     1.548874201440758        0.5014470043358109    
     1.557069303035683        0.4971180947200853    
     1.565264404630607        0.4928128924634629    
     1.573459506225532        0.4885316677161863    
     1.581654607820457        0.4842746736830637    
     1.589849709415381        0.4800421472120051    
     1.598044811010306        0.4758343093620337    
     1.606239912605230        0.4716513659515901    
     1.614435014200155        0.4674935080879357    
     1.622630115795080        0.4633609126784321    
     1.630825217390004        0.4592537429244441    
     1.639020318984929        0.4551721487985926    
     1.647215420579854        0.4511162675060530    
     1.655410522174778        0.4470862239305617    
     1.663605623769703        0.4430821310657775    
     1.671800725364628        0.4391040904326045    
     1.679995826959552        0.4351521924830633    
     1.688190928554477        0.4312265169912593    
     1.696386030149402        0.4273271334319864    
     1.704581131744326        0.4234541013474555    
     1.712776233339251        0.4196074707026287    
     1.720971334934176        0.4157872822296078    
     1.729166436529100        0.4119935677614930    
     1.737361538124025        0.4082263505561186    
     1.745556639718949        0.4044856456100328    
     1.753751741313874        0.4007714599630822    
     1.761946842908799        0.3970837929939239    
     1.770141944503723        0.3934226367067790    
     1.778337046098648        0.3897879760097206    
     1.786532147693573        0.3861797889847675    
     1.794727249288497        0.3825980471500344    
     1.802922350883422        0.3790427157141885    
     1.811117452478347        0.3755137538234287    
     1.819312554073271        0.3720111148012052    
     1.827507655668196        0.3685347463808710    
     1.835702757263121        0.3650845909314642    
     1.843897858858045        0.3616605856767888    
     1.852092960452970        0.3582626629079652    
     1.860288062047895        0.3548907501896146    
     1.868483163642819        0.3515447705598258    
     1.876678265237744        0.3482246427240503    
     1.884873366832668        0.3449302812430717    
     1.893068468427593        0.3416615967151827    
     1.901263570022518        0.3384184959527002    
     1.909458671617442        0.3352008821529514    
     1.917653773212367        0.3320086550638576    
     1.925848874807292        0.3288417111442313    
     1.934043976402216        0.3256999437189249    
     1.942239077997141        0.3225832431289310    
     1.950434179592066        0.3194914968765752    
     1.958629281186990        0.3164245897659035    
     1.966824382781915        0.3133824040383923    
     1.975019484376840        0.3103648195040978    
     1.983214585971764        0.3073717136683564    
     1.991409687566689        0.3044029618541580    
     1.999604789161614        0.3014584373203082    
     2.007799890756538        0.2985380113754952    
     2.015994992351463        0.2956415534883764    
     2.024190093946387        0.2927689313938039    
     2.032385195541312        0.2899200111952975    
     2.040580297136237        0.2870946574638830    
     2.048775398731161        0.2842927333334078    
     2.056970500326086        0.2815141005924460    
     2.065165601921011        0.2787586197728991    
     2.073360703515935        0.2760261502354091    
     2.081555805110860        0.2733165502516816    
     2.089750906705785        0.2706296770838330    
     2.097946008300709        0.2679653870608552    
     2.106141109895634        0.2653235356523083    
     2.114336211490559        0.2627039775393308    
     2.122531313085483        0.2601065666830705    
     2.130726414680408        0.2575311563906212    
     2.138921516275333        0.2549775993785633    
     2.147116617870257        0.2524457478341881    
     2.155311719465182        0.2499354534744959    
     2.163506821060106        0.2474465676030468    
     2.171701922655031        0.2449789411647371    
     2.179897024249956        0.2425324247985876    
     2.188092125844880        0.2401068688886021    
     2.196287227439805        0.2377021236127768    
     2.204482329034730        0.2353180389903164    
     2.212677430629654        0.2329544649271245    
     2.220872532224579        0.2306112512596295    
     2.229067633819504        0.2282882477969956    
     2.237262735414428        0.2259853043617814    
     2.245457837009353        0.2237022708290916    
     2.253652938604278        0.2214389971642695    
     2.261848040199202        0.2191953334591853    
     2.270043141794127        0.2169711299671513    
     2.278238243389052        0.2147662371365177    
     2.286433344983976        0.2125805056429827    
     2.294628446578901        0.2104137864206540    
     2.302823548173826        0.2082659306919037    
     2.311018649768750        0.2061367899960467    
     2.319213751363675        0.2040262162168749    
     2.327408852958599        0.2019340616090849    
     2.335603954553524        0.1998601788236261    
     2.343799056148449        0.1978044209319973    
     2.351994157743373        0.1957666414495250    
     2.360189259338298        0.1937466943576513    
     2.368384360933223        0.1917444341252530    
     2.376579462528147        0.1897597157290248    
     2.384774564123072        0.1877923946729519    
     2.392969665717997        0.1858423270068945    
     2.401164767312921        0.1839093693443102    
     2.409359868907846        0.1819933788791427    
     2.417554970502771        0.1800942134018968    
     2.425750072097695        0.1782117313149263    
     2.433945173692620        0.1763457916469563    
     2.442140275287545        0.1744962540668664    
     2.450335376882469        0.1726629788967573    
     2.458530478477394        0.1708458271243191    
     2.466725580072318        0.1690446604145301    
     2.474920681667243        0.1672593411207055    
     2.483115783262168        0.1654897322949188    
     2.491310884857092        0.1637356976978131    
     2.499505986452017        0.1619971018078303    
     2.507701088046942        0.1602738098298743    
     2.515896189641866        0.1585656877034300    
     2.524091291236791        0.1568726021101606    
     2.532286392831716        0.1551944204810000    
     2.540481494426640        0.1535310110027615    
     2.548676596021565        0.1518822426242480    
     2.556871697616490        0.1502479850619233    
     2.565066799211414        0.1486281088051261    
     2.573261900806339        0.1470224851209312    
     2.581457002401264        0.1454309860587027    
     2.589652103996188        0.1438534844542040    
     2.597847205591113        0.1422898539333854    
     2.606042307186037        0.1407399689155290    
     2.614237408780962        0.1392037046159403    
     2.622432510375887        0.1376809370483791    
     2.630627611970811        0.1361715430271508    
     2.638822713565736        0.1346754001693610    
     2.647017815160661        0.1331923868969303    
     2.655212916755585        0.1317223824383198    
     2.663408018350510        0.1302652668299996    
     2.671603119945435        0.1288209209173519    
     2.679798221540359        0.1273892263553285    
     2.687993323135284        0.1259700656088406    
     2.696188424730209        0.1245633219528885    
     2.704383526325133        0.1231688794725219    
     2.712578627920058        0.1217866230625491    
     2.720773729514983        0.1204164384270254    
     2.728968831109907        0.1190582120785351    
     2.737163932704832        0.1177118313372790    
     2.745359034299756        0.1163771843299688    
     2.753554135894681        0.1150541599885417    
     2.761749237489606        0.1137426480486932    
     2.769944339084530        0.1124425390482386    
     2.778139440679455        0.1111537243253118    
     2.786334542274380        0.1098760960164058    
     2.794529643869304        0.1086095470542644    
     2.802724745464229        0.1073539711656277    
     2.810919847059154        0.1061092628688406    
     2.819114948654078        0.1048753174713264    
     2.827310050249003        0.1036520310669343    
     2.835505151843928        0.1024393005331663    
     2.843700253438852        0.1012370235282835    
     2.851895355033777        0.1000450984883050    
     2.860090456628702        0.9886342462389765E-01
     2.868285558223626        0.9769190191716456E-01
     2.876480659818551        0.9653043111833599E-01
     2.884675761413475        0.9537891374236736E-01
     2.892870863008400        0.9423725206544946E-01
     2.901065964603325        0.9310534912143227E-01
     2.909261066198249        0.9198310869817015E-01
     2.917456167793174        0.9087043533378986E-01
     2.925651269388099        0.8976723431288604E-01
     2.933846370983023        0.8867341166264646E-01
     2.942041472577948        0.8758887414891314E-01
     2.950236574172873        0.8651352927218144E-01
     2.958431675767797        0.8544728526353775E-01
     2.966626777362722        0.8439005108054450E-01
     2.974821878957647        0.8334173640307206E-01
     2.983016980552571        0.8230225162907863E-01
     2.991212082147496        0.8127150787034616E-01
     2.999407183742421        0.8024941694817178E-01
     3.007602285337345        0.7923589138901649E-01
     3.015797386932270        0.7823084442011664E-01
     3.023992488527194        0.7723418996506008E-01
     3.032187590122119        0.7624584263932571E-01
     3.040382691717044        0.7526571774579462E-01
     3.048577793311968        0.7429373127023141E-01
     3.056772894906893        0.7332979987673752E-01
     3.064967996501818        0.7237384090318091E-01
     3.073163098096742        0.7142577235660340E-01
     3.081358199691667        0.7048551290860602E-01
     3.089553301286592        0.6955298189071622E-01
     3.097748402881516        0.6862809928973884E-01
     3.105943504476441        0.6771078574309035E-01
     3.114138606071366        0.6680096253412078E-01
     3.122333707666290        0.6589855158742372E-01
     3.130528809261215        0.6500347546413546E-01
     3.138723910856140        0.6411565735722566E-01
     3.146919012451064        0.6323502108678163E-01
     3.155114114045988        0.6236149109528506E-01
     3.163309215640913        0.6149499244288580E-01
     3.171504317235838        0.6063545080267307E-01
     3.179699418830762        0.5978279245594177E-01
     3.187894520425687        0.5893694428746243E-01
     3.196089622020612        0.5809783378074789E-01
     3.204284723615536        0.5726538901332385E-01
     3.212479825210461        0.5643953865200287E-01
     3.220674926805386        0.5562021194815901E-01
     3.228870028400310        0.5480733873301089E-01
     3.237065129995235        0.5400084941290902E-01
     3.245260231590160        0.5320067496462912E-01
     3.253455333185084        0.5240674693067445E-01
     3.261650434780009        0.5161899741458639E-01
     3.269845536374933        0.5083735907626372E-01
     3.278040637969858        0.5006176512729255E-01
     3.286235739564783        0.4929214932628694E-01
     3.294430841159707        0.4852844597424141E-01
     3.302625942754632        0.4777058990989547E-01
     3.310821044349557        0.4701851650511103E-01
     3.319016145944481        0.4627216166026395E-01
     3.327211247539406        0.4553146179964947E-01
     3.335406349134331        0.4479635386690162E-01
     3.343601450729255        0.4406677532043082E-01
     3.351796552324180        0.4334266412887301E-01
     3.359991653919105        0.4262395876655923E-01
     3.368186755514029        0.4191059820899996E-01
     3.376381857108954        0.4120252192838712E-01
     3.384576958703879        0.4049966988911420E-01
     3.392772060298803        0.3980198254331426E-01
     3.400967161893728        0.3910940082641673E-01
     3.409162263488652        0.3842186615272337E-01
     3.417357365083577        0.3773932041100231E-01
     3.425552466678502        0.3706170596010438E-01
     3.433747568273426        0.3638896562459640E-01
     3.441942669868351        0.3572104269041668E-01
     3.450137771463276        0.3505788090055082E-01
     3.458332873058200        0.3439942445072757E-01
     3.466527974653125        0.3374561798513664E-01
     3.474723076248050        0.3309640659216691E-01
     3.482918177842974        0.3245173580016696E-01
     3.491113279437899        0.3181155157322677E-01
     3.499308381032824        0.3117580030698119E-01
     3.507503482627748        0.3054442882443733E-01
     3.515698584222673        0.2991738437182157E-01
     3.523893685817598        0.2929461461445130E-01
     3.532088787412522        0.2867606763262796E-01
     3.540283889007447        0.2806169191755298E-01
     3.548478990602371        0.2745143636726694E-01
     3.556674092197296        0.2684525028261016E-01
     3.564869193792221        0.2624308336320881E-01
     3.573064295387145        0.2564488570348088E-01
     3.581259396982070        0.2505060778866836E-01
     3.589454498576995        0.2446020049089064E-01
     3.597649600171919        0.2387361506522237E-01
     3.605844701766844        0.2329080314579385E-01
     3.614039803361769        0.2271171674191534E-01
     3.622234904956693        0.2213630823422454E-01
     3.630430006551618        0.2156453037085702E-01
     3.638625108146543        0.2099633626364148E-01
     3.646820209741467        0.2043167938431617E-01
     3.655015311336392        0.1987051356077121E-01
     3.663210412931317        0.1931279297331199E-01
     3.671405514526241        0.1875847215094800E-01
     3.679600616121166        0.1820750596770322E-01
     3.687795717716090        0.1765984963895117E-01
     3.695990819311015        0.1711545871777233E-01
     3.704185920905940        0.1657428909143870E-01
     3.712381022500864        0.1603629699783553E-01
     3.720576124095789        0.1550143954328414E-01
     3.728771225690714        0.1496967851498418E-01
     3.736966327285638        0.1444099222946904E-01
     3.745161428880563        0.1391539593833192E-01
     3.753356530475488        0.1339296510223913E-01
     3.761551632070412        0.1287385467843007E-01
     3.769746733665337        0.1235831045277214E-01
     3.777941835260262        0.1184667172238825E-01
     3.786136936855186        0.1133936663690816E-01
     3.794332038450111        0.1083690224730560E-01
     3.802527140045036        0.1033985129030445E-01
     3.810722241639960        0.9848837383487947E-02
     3.818917343234885        0.9364519874814591E-02
     3.827112444829810        0.8887579197646694E-02
     3.835307546424734        0.8418703268300829E-02
     3.843502648019659        0.7958575229980653E-02
     3.851697749614583        0.7507862682823663E-02
     3.859892851209508        0.7067208429271368E-02
     3.868087952804433        0.6637222692920297E-02
     3.876283054399357        0.6218476725891049E-02
     3.884478155994282        0.5811497695867180E-02
     3.892673257589207        0.5416764732917529E-02
     3.900868359184131        0.5034706013521761E-02
     3.909063460779056        0.4665696761730094E-02
     3.917258562373981        0.4310058052933459E-02
     3.925453663968905        0.3968056312853924E-02
     3.933648765563830        0.3639903412060548E-02
     3.941843867158755        0.3325757263899021E-02
     3.950038968753679        0.3025722840647017E-02
     3.958234070348604        0.2739853528545268E-02
     3.966429171943529        0.2468152746592623E-02
     3.974624273538453        0.2210575756000808E-02
     3.982819375133378        0.1967031585942336E-02
     3.991014476728302        0.1737384994999564E-02
     3.999209578323227        0.1521458373442183E-02
     4.007404679918152        0.1319033463445980E-02
     4.015599781513076        0.1129852721480746E-02
     4.023794883108001        0.9536200465473803E-03
     4.031989984702926        0.7900003999185001E-03
     4.040185086297851        0.6386174292235914E-03
     4.048380187892775        0.4990472783473797E-03
     4.056575289487700        0.3708044262567283E-03
     4.064770391082624        0.2533085892313050E-03
     4.072965492677549        0.1457980420057780E-03
     4.081160594272474        0.4701659037663468E-04
     4.089355695867399         0.000000000000000    
  1  2  1  0  2.000000   #orbital l, n, z, is_polarized, population
 500    0.9697951768956272E-02     4.839277932709179     # npts, delta, cutoff
     0.000000000000000         2.862986027435703    
    0.9697951768956272E-02     2.862480418188295    
    0.1939590353791254E-01     2.860964183690704    
    0.2909385530686882E-01     2.858439109320701    
    0.3879180707582509E-01     2.854908169234437    
    0.4848975884478136E-01     2.850375526122455    
    0.5818771061373763E-01     2.844846529938601    
    0.6788566238269390E-01     2.838327716064394    
    0.7758361415165017E-01     2.830826802763021    
    0.8728156592060644E-01     2.822352687750428    
    0.9697951768956271E-01     2.812915443687420    
    0.1066774694585190         2.802526312377176    
    0.1163754212274753         2.791197697436889    
    0.1260733729964315         2.778943155201563    
    0.1357713247653878         2.765777383611782    
    0.1454692765343441         2.751716208836366    
    0.1551672283033003         2.736776569385022    
    0.1648651800722566         2.720976497475663    
    0.1745631318412129         2.704335097435650    
    0.1842610836101692         2.686872520935979    
    0.1939590353791254         2.668609938881976    
    0.2036569871480817         2.649569509812987    
    0.2133549389170380         2.629774344696720    
    0.2230528906859942         2.609248468040369    
    0.2327508424549505         2.588016775280315    
    0.2424487942239068         2.566104986454107    