   2   2   0   0
  0.2580196E+02  0.2441046E-09  0.2441046E-09  0.1000000E-08  0.1000000E-15
   300.00000000000000     
  CAR 
 unknown system                          
     14.35784859    -22.56583822  301     -0.79832352      1.00000000
    -22.566  0.0000E+00  0.0000E+00
    -22.443  0.0000E+00  0.0000E+00
    -22.320  0.0000E+00  0.0000E+00
    -22.197 -0.6247E-29 -0.7692E-30
    -22.074 -0.9055E-25 -0.1115E-25
    -21.950 -0.6109E-21 -0.7523E-22
    -21.827 -0.1916E-17 -0.2360E-18
    -21.704 -0.2704E-14 -0.3332E-15
    -21.581 -0.1805E-11 -0.2226E-12
    -21.458 -0.5543E-09 -0.6848E-10
    -21.335 -0.7758E-07 -0.9621E-08
    -21.212 -0.4879E-05 -0.6104E-06
    -21.089 -0.1338E-03 -0.1709E-04
    -20.966 -0.1489E-02 -0.2004E-03
    -20.843 -0.5108E-02 -0.8294E-03
    -20.720  0.6719E-02 -0.1910E-05
    -20.597  0.4951E-01  0.6094E-02
    -20.473  0.8842E-01  0.1698E-01
    -20.350  0.2928E+00  0.5303E-01
    -20.227  0.5833E+00  0.1249E+00
    -20.104  0.3796E+00  0.1716E+00
    -19.981  0.1407E-01  0.1733E+00
    -19.858 -0.1273E-01  0.1718E+00
    -19.735  0.3118E+00  0.2102E+00
    -19.612  0.5720E+00  0.2806E+00
    -19.489  0.4873E+00  0.3406E+00
    -19.366  0.5596E+00  0.4095E+00
    -19.243  0.4420E+00  0.4639E+00
    -19.120  0.8392E-01  0.4742E+00
    -18.997 -0.3302E-01  0.4702E+00
    -18.873 -0.3893E-01  0.4654E+00
    -18.750 -0.5460E-01  0.4587E+00
    -18.627  0.2745E+00  0.4925E+00
    -18.504  0.1039E+01  0.6204E+00
    -18.381  0.1011E+01  0.7448E+00
    -18.258  0.2275E+00  0.7728E+00
    -18.135 -0.6461E-01  0.7649E+00
    -18.012  0.2209E+00  0.7921E+00
    -17.889  0.5803E+00  0.8635E+00
    -17.766  0.3977E+00  0.9125E+00
    -17.643  0.4552E-01  0.9181E+00
    -17.520 -0.3276E-01  0.9141E+00
    -17.397 -0.3096E-01  0.9102E+00
    -17.273 -0.5705E-02  0.9095E+00
    -17.150  0.2463E+00  0.9399E+00
    -17.027  0.5431E+00  0.1007E+01
    -16.904  0.6980E+00  0.1093E+01
    -16.781  0.1115E+01  0.1230E+01
    -16.658  0.9315E+00  0.1345E+01
    -16.535  0.1922E+00  0.1368E+01
    -16.412 -0.6341E-01  0.1361E+01
    -16.289 -0.4767E-01  0.1355E+01
    -16.166  0.5827E-02  0.1355E+01
    -16.043  0.3075E+00  0.1393E+01
    -15.920  0.5936E+00  0.1466E+01
    -15.796  0.3370E+00  0.1508E+01
    -15.673  0.1560E-01  0.1510E+01
    -15.550 -0.5397E-01  0.1503E+01
    -15.427 -0.6524E-01  0.1495E+01
    -15.304  0.2398E+00  0.1525E+01
    -15.181  0.1047E+01  0.1654E+01
    -15.058  0.1324E+01  0.1817E+01
    -14.935  0.8151E+00  0.1917E+01
    -14.812  0.2921E+00  0.1953E+01
    -14.689  0.1622E-01  0.1955E+01
    -14.566 -0.2850E-01  0.1951E+01
    -14.443 -0.1620E-01  0.1949E+01
    -14.320 -0.6366E-02  0.1949E+01
    -14.196  0.8556E-01  0.1959E+01
    -14.073  0.3027E+00  0.1996E+01
    -13.950  0.4333E+00  0.2050E+01
    -13.827  0.2913E+00  0.2086E+01
    -13.704  0.1063E+00  0.2099E+01
    -13.581  0.1295E+00  0.2115E+01
    -13.458  0.3537E+00  0.2158E+01
    -13.335  0.6305E+00  0.2236E+01
    -13.212  0.6180E+00  0.2312E+01
    -13.089  0.2565E+00  0.2344E+01
    -12.966 -0.1152E-01  0.2342E+01
    -12.843  0.1331E+00  0.2359E+01
    -12.720  0.7026E+00  0.2445E+01
    -12.596  0.9991E+00  0.2568E+01
    -12.473  0.5613E+00  0.2637E+01
    -12.350  0.8395E-01  0.2647E+01
    -12.227 -0.4499E-01  0.2642E+01
    -12.104 -0.5280E-01  0.2635E+01
    -11.981  0.8176E-01  0.2646E+01
    -11.858  0.6130E+00  0.2721E+01
    -11.735  0.1035E+01  0.2848E+01
    -11.612  0.7160E+00  0.2937E+01
    -11.489  0.2749E+00  0.2970E+01
    -11.366  0.1171E+00  0.2985E+01
    -11.243  0.3392E-01  0.2989E+01
    -11.119 -0.6480E-02  0.2988E+01
    -10.996 -0.1118E-01  0.2987E+01
    -10.873 -0.2550E-01  0.2984E+01
    -10.750  0.5023E-02  0.2984E+01
    -10.627  0.2995E+00  0.3021E+01
    -10.504  0.8138E+00  0.3121E+01
    -10.381  0.8744E+00  0.3229E+01
    -10.258  0.4304E+00  0.3282E+01
    -10.135  0.3965E+00  0.3331E+01
    -10.012  0.8342E+00  0.3434E+01
     -9.889  0.8322E+00  0.3536E+01
     -9.766  0.3536E+00  0.3580E+01
     -9.643  0.3590E-01  0.3584E+01
     -9.519 -0.2917E-01  0.3581E+01
     -9.396 -0.3561E-01  0.3576E+01
     -9.273 -0.6121E-02  0.3575E+01
     -9.150  0.3154E+00  0.3614E+01
     -9.027  0.1008E+01  0.3738E+01
     -8.904  0.1319E+01  0.3901E+01
     -8.781  0.8283E+00  0.4003E+01
     -8.658  0.2769E+00  0.4037E+01
     -8.535  0.5295E-01  0.4043E+01
     -8.412  0.1388E+00  0.4060E+01
     -8.289  0.5808E+00  0.4132E+01
     -8.166  0.8219E+00  0.4233E+01
     -8.043  0.6451E+00  0.4312E+01
     -7.919  0.6433E+00  0.4392E+01
     -7.796  0.9552E+00  0.4509E+01
     -7.673  0.1266E+01  0.4665E+01
     -7.550  0.1302E+01  0.4826E+01
     -7.427  0.7596E+00  0.4919E+01
     -7.304  0.3069E+00  0.4957E+01
     -7.181  0.6930E+00  0.5042E+01
     -7.058  0.1242E+01  0.5195E+01
     -6.935  0.1244E+01  0.5348E+01
     -6.812  0.9135E+00  0.5461E+01
     -6.689  0.6363E+00  0.5539E+01
     -6.566  0.6478E+00  0.5619E+01
     -6.442  0.7026E+00  0.5705E+01
     -6.319  0.8876E+00  0.5815E+01
     -6.196  0.1319E+01  0.5977E+01
     -6.073  0.1035E+01  0.6104E+01
     -5.950  0.2140E+00  0.6131E+01
     -5.827 -0.6046E-01  0.6123E+01
     -5.704  0.2577E+00  0.6155E+01
     -5.581  0.9345E+00  0.6270E+01
     -5.458  0.1214E+01  0.6420E+01
     -5.335  0.7662E+00  0.6514E+01
     -5.212  0.3212E+00  0.6554E+01
     -5.089  0.2189E+00  0.6581E+01
     -4.966  0.2849E+00  0.6616E+01
     -4.842  0.3416E+00  0.6658E+01
     -4.719  0.4188E+00  0.6709E+01
     -4.596  0.6396E+00  0.6788E+01
     -4.473  0.9372E+00  0.6903E+01
     -4.350  0.1328E+01  0.7067E+01
     -4.227  0.1228E+01  0.7218E+01
     -4.104  0.5412E+00  0.7285E+01
     -3.981  0.1775E+00  0.7307E+01
     -3.858  0.2281E+00  0.7335E+01
     -3.735  0.4366E+00  0.7388E+01
     -3.612  0.5358E+00  0.7454E+01
     -3.489  0.3079E+00  0.7492E+01
     -3.366  0.6664E-01  0.7500E+01
     -3.242  0.4433E-01  0.7506E+01
     -3.119  0.1665E+00  0.7526E+01
     -2.996  0.3890E+00  0.7574E+01
     -2.873  0.6267E+00  0.7652E+01
     -2.750  0.8791E+00  0.7760E+01
     -2.627  0.9729E+00  0.7880E+01
     -2.504  0.5471E+00  0.7947E+01
     -2.381  0.7919E-01  0.7957E+01
     -2.258 -0.3444E-01  0.7952E+01
     -2.135 -0.1310E-01  0.7951E+01
     -2.012 -0.1615E-02  0.7951E+01
     -1.889 -0.8856E-04  0.7951E+01
     -1.765 -0.1648E-04  0.7951E+01
     -1.642 -0.2555E-03  0.7951E+01
     -1.519 -0.1805E-02  0.7950E+01
     -1.396 -0.2900E-02  0.7950E+01
     -1.273  0.1319E-01  0.7952E+01
     -1.150  0.5068E-01  0.7958E+01
     -1.027  0.1002E+00  0.7970E+01
     -0.904  0.2023E+00  0.7995E+01
     -0.781  0.2523E+00  0.8026E+01
     -0.658  0.1507E+00  0.8045E+01
     -0.535  0.4277E-01  0.8050E+01
     -0.412  0.5585E-03  0.8050E+01
     -0.289 -0.4282E-02  0.8050E+01
     -0.165 -0.2116E-02  0.8049E+01
     -0.042 -0.3184E-02  0.8049E+01
      0.081  0.1591E-02  0.8049E+01
      0.204  0.2651E-01  0.8052E+01
      0.327  0.8031E-01  0.8062E+01
      0.450  0.1961E+00  0.8086E+01
      0.573  0.3892E+00  0.8134E+01
      0.696  0.6811E+00  0.8218E+01
      0.819  0.9369E+00  0.8334E+01
      0.942  0.8652E+00  0.8440E+01
      1.065  0.5483E+00  0.8508E+01
      1.188  0.3271E+00  0.8548E+01
      1.311  0.2884E+00  0.8583E+01
      1.435  0.2522E+00  0.8614E+01
      1.558  0.1451E+00  0.8632E+01
      1.681  0.5406E-01  0.8639E+01
      1.804  0.3683E-01  0.8643E+01
      1.927  0.1276E+00  0.8659E+01
      2.050  0.2620E+00  0.8692E+01
      2.173  0.4051E+00  0.8741E+01
      2.296  0.5664E+00  0.8811E+01
      2.419  0.6924E+00  0.8897E+01
      2.542  0.8171E+00  0.8997E+01
      2.665  0.7993E+00  0.9095E+01
      2.788  0.4929E+00  0.9156E+01
      2.912  0.2253E+00  0.9184E+01
      3.035  0.2745E+00  0.9218E+01
      3.158  0.4356E+00  0.9271E+01
      3.281  0.5701E+00  0.9342E+01
      3.404  0.6990E+00  0.9428E+01
      3.527  0.6027E+00  0.9502E+01
      3.650  0.3777E+00  0.9548E+01
      3.773  0.4512E+00  0.9604E+01
      3.896  0.6455E+00  0.9683E+01
      4.019  0.6627E+00  0.9765E+01
      4.142  0.7773E+00  0.9861E+01
      4.265  0.8164E+00  0.9961E+01
      4.388  0.4748E+00  0.1002E+02
      4.512  0.1715E+00  0.1004E+02
      4.635  0.1245E+00  0.1006E+02
      4.758  0.1973E+00  0.1008E+02
      4.881  0.5057E+00  0.1014E+02
      5.004  0.9629E+00  0.1026E+02
      5.127  0.9142E+00  0.1037E+02
      5.250  0.5588E+00  0.1044E+02
      5.373  0.6542E+00  0.1052E+02
      5.496  0.9864E+00  0.1064E+02
      5.619  0.1348E+01  0.1081E+02
      5.742  0.1369E+01  0.1098E+02
      5.865  0.9042E+00  0.1109E+02
      5.988  0.7411E+00  0.1118E+02
      6.112  0.6131E+00  0.1126E+02
      6.235  0.3302E+00  0.1130E+02
      6.358  0.2710E+00  0.1133E+02
      6.481  0.6257E+00  0.1141E+02
      6.604  0.1095E+01  0.1154E+02
      6.727  0.9452E+00  0.1166E+02
      6.850  0.5278E+00  0.1172E+02
      6.973  0.6544E+00  0.1180E+02
      7.096  0.1044E+01  0.1193E+02
      7.219  0.1113E+01  0.1207E+02
      7.342  0.1364E+01  0.1224E+02
      7.465  0.2181E+01  0.1251E+02
      7.589  0.1932E+01  0.1274E+02
      7.712  0.8024E+00  0.1284E+02
      7.835  0.6011E+00  0.1292E+02
      7.958  0.1182E+01  0.1306E+02
      8.081  0.1710E+01  0.1327E+02
      8.204  0.1798E+01  0.1350E+02
      8.327  0.1687E+01  0.1370E+02
      8.450  0.1321E+01  0.1387E+02
      8.573  0.7996E+00  0.1396E+02
      8.696  0.6633E+00  0.1405E+02
      8.819  0.9099E+00  0.1416E+02
      8.942  0.1028E+01  0.1428E+02
      9.065  0.6364E+00  0.1436E+02
      9.189  0.1263E+00  0.1438E+02
      9.312 -0.1020E-01  0.1438E+02
      9.435  0.2625E-01  0.1438E+02
      9.558  0.1585E+00  0.1440E+02
      9.681  0.5716E+00  0.1447E+02
      9.804  0.1367E+01  0.1464E+02
      9.927  0.1883E+01  0.1487E+02
     10.050  0.1460E+01  0.1505E+02
     10.173  0.1127E+01  0.1519E+02
     10.296  0.1006E+01  0.1531E+02
     10.419  0.5979E+00  0.1539E+02
     10.542  0.5085E+00  0.1545E+02
     10.665  0.6384E+00  0.1553E+02
     10.789  0.4538E+00  0.1558E+02
     10.912  0.3125E+00  0.1562E+02
     11.035  0.7284E+00  0.1571E+02
     11.158  0.1026E+01  0.1584E+02
     11.281  0.5332E+00  0.1590E+02
     11.404  0.3384E-01  0.1591E+02
     11.527 -0.4167E-01  0.1590E+02
     11.650 -0.1021E-01  0.1590E+02
     11.773 -0.2205E-02  0.1590E+02
     11.896 -0.7177E-02  0.1590E+02
     12.019 -0.5199E-02  0.1590E+02
     12.142  0.6963E-01  0.1591E+02
     12.266  0.2425E+00  0.1594E+02
     12.389  0.3281E+00  0.1598E+02
     12.512  0.1777E+00  0.1600E+02
     12.635  0.1538E-01  0.1600E+02
     12.758 -0.1355E-01  0.1600E+02
     12.881 -0.3543E-02  0.1600E+02
     13.004 -0.3035E-03  0.1600E+02
     13.127 -0.1076E-04  0.1600E+02
     13.250 -0.1681E-06  0.1600E+02
     13.373 -0.1186E-08  0.1600E+02
     13.496 -0.3828E-11  0.1600E+02
     13.619 -0.5687E-14  0.1600E+02
     13.742  0.0000E+00  0.1600E+02
     13.866  0.0000E+00  0.1600E+02
     13.989  0.0000E+00  0.1600E+02
     14.112  0.0000E+00  0.1600E+02
     14.235  0.0000E+00  0.1600E+02
     14.358  0.0000E+00  0.1600E+02
     14.35909860    -22.56552551  301     -0.79829036      1.00000000
    -22.566  0.0000E+00  0.0000E+00
    -22.442  0.0000E+00  0.0000E+00
    -22.319  0.0000E+00  0.0000E+00
    -22.196 -0.6173E-31 -0.7598E-32
    -22.073 -0.8921E-27 -0.1098E-27
    -21.950 -0.6004E-23 -0.7391E-24
    -21.827 -0.1880E-19 -0.2314E-20
    -21.704 -0.2654E-16 -0.3269E-17
    -21.581 -0.1769E-13 -0.2181E-14
    -21.458 -0.5433E-11 -0.6709E-12
    -21.335 -0.7614E-09 -0.9438E-10
    -21.212 -0.4798E-07 -0.6000E-08
    -21.089 -0.1320E-05 -0.1685E-06
    -20.965 -0.1475E-04 -0.1983E-05
    -20.842 -0.5107E-04 -0.8269E-05
    -20.719  0.6465E-04 -0.3119E-06
    -20.596  0.4907E-03  0.6008E-04
    -20.473  0.8876E-03  0.1693E-03
    -20.350  0.2937E-02  0.5308E-03
    -20.227  0.5836E-02  0.1249E-02
    -20.104  0.3792E-02  0.1716E-02
    -19.981  0.1360E-03  0.1733E-02
    -19.858 -0.1020E-03  0.1720E-02
    -19.735  0.3181E-02  0.2112E-02
    -19.612  0.5729E-02  0.2817E-02
    -19.488  0.4897E-02  0.3419E-02
    -19.365  0.5629E-02  0.4112E-02
    -19.242  0.4338E-02  0.4646E-02
    -19.119  0.7780E-03  0.4742E-02
    -18.996 -0.3355E-03  0.4701E-02
    -18.873 -0.4072E-03  0.4650E-02
    -18.750 -0.5133E-03  0.4587E-02
    -18.627  0.3068E-02  0.4965E-02
    -18.504  0.1066E-01  0.6276E-02
    -18.381  0.9796E-02  0.7482E-02
    -18.258  0.1972E-02  0.7725E-02
    -18.135 -0.5962E-03  0.7651E-02
    -18.011  0.2486E-02  0.7957E-02
    -17.888  0.5870E-02  0.8680E-02
    -17.765  0.3721E-02  0.9138E-02
    -17.642  0.3303E-03  0.9179E-02
    -17.519 -0.3283E-03  0.9138E-02
    -17.396 -0.3222E-03  0.9098E-02
    -17.273  0.4978E-04  0.9105E-02
    -17.150  0.2789E-02  0.9448E-02
    -17.027  0.5572E-02  0.1013E-01
    -16.904  0.7305E-02  0.1103E-01
    -16.781  0.1143E-01  0.1244E-01
    -16.658  0.8646E-02  0.1350E-01
    -16.535  0.1420E-02  0.1368E-01
    -16.411 -0.6539E-03  0.1360E-01
    -16.288 -0.4636E-03  0.1354E-01
    -16.165  0.2275E-03  0.1357E-01
    -16.042  0.3522E-02  0.1400E-01
    -15.919  0.5929E-02  0.1473E-01
    -15.796  0.2926E-02  0.1509E-01
    -15.673 -0.1366E-04  0.1509E-01
    -15.550 -0.5857E-03  0.1502E-01
    -15.427 -0.5525E-03  0.1495E-01
    -15.304  0.3384E-02  0.1537E-01
    -15.181  0.1152E-01  0.1679E-01
    -15.058  0.1256E-01  0.1833E-01
    -14.934  0.6922E-02  0.1918E-01
    -14.811  0.2605E-02  0.1950E-01
    -14.688  0.3111E-03  0.1954E-01
    -14.565 -0.2750E-03  0.1951E-01
    -14.442 -0.1716E-03  0.1949E-01
    -14.319  0.5363E-03  0.1955E-01
    -14.196  0.1982E-02  0.1980E-01
    -14.073  0.2883E-02  0.2015E-01
    -13.950  0.3077E-02  0.2053E-01
    -13.827  0.2544E-02  0.2084E-01
    -13.704  0.1613E-02  0.2104E-01
    -13.581  0.1915E-02  0.2128E-01
    -13.457  0.3778E-02  0.2174E-01
    -13.334  0.6191E-02  0.2250E-01
    -13.211  0.5525E-02  0.2319E-01
    -13.088  0.1978E-02  0.2343E-01
    -12.965  0.2804E-03  0.2346E-01
    -12.842  0.3161E-02  0.2385E-01
    -12.719  0.7618E-02  0.2479E-01
    -12.596  0.8285E-02  0.2581E-01
    -12.473  0.4606E-02  0.2638E-01
    -12.350  0.7240E-03  0.2647E-01
    -12.227 -0.5448E-03  0.2640E-01
    -12.104 -0.2212E-03  0.2637E-01
    -11.980  0.2627E-02  0.2669E-01
    -11.857  0.7533E-02  0.2762E-01
    -11.734  0.9142E-02  0.2875E-01
    -11.611  0.6269E-02  0.2952E-01
    -11.488  0.2675E-02  0.2985E-01
    -11.365  0.4835E-03  0.2991E-01
    -11.242 -0.1569E-03  0.2989E-01
    -11.119 -0.1080E-03  0.2987E-01
    -10.996 -0.1691E-03  0.2985E-01
    -10.873 -0.1972E-03  0.2983E-01
    -10.750  0.1378E-02  0.3000E-01
    -10.627  0.5124E-02  0.3063E-01
    -10.503  0.7512E-02  0.3155E-01
    -10.380  0.6748E-02  0.3239E-01
    -10.257  0.5719E-02  0.3309E-01
    -10.134  0.6976E-02  0.3395E-01
    -10.011  0.8152E-02  0.3495E-01
     -9.888  0.5777E-02  0.3566E-01
     -9.765  0.1575E-02  0.3586E-01
     -9.642 -0.2831E-03  0.3582E-01
     -9.519 -0.4122E-03  0.3577E-01
     -9.396 -0.8392E-04  0.3576E-01
     -9.273  0.2419E-02  0.3606E-01
     -9.150  0.7075E-02  0.3693E-01
     -9.026  0.9881E-02  0.3814E-01
     -8.903  0.9614E-02  0.3933E-01
     -8.780  0.6386E-02  0.4011E-01
     -8.657  0.2110E-02  0.4037E-01
     -8.534  0.2894E-03  0.4041E-01
     -8.411  0.1846E-02  0.4064E-01
     -8.288  0.7160E-02  0.4152E-01
     -8.165  0.1005E-01  0.4275E-01
     -8.042  0.8778E-02  0.4384E-01
     -7.919  0.7699E-02  0.4478E-01
     -7.796  0.7762E-02  0.4574E-01
     -7.673  0.8925E-02  0.4684E-01
     -7.550  0.9723E-02  0.4803E-01
     -7.426  0.8132E-02  0.4903E-01
     -7.303  0.8682E-02  0.5010E-01
     -7.180  0.1309E-01  0.5171E-01
     -7.057  0.1223E-01  0.5322E-01
     -6.934  0.8021E-02  0.5421E-01
     -6.811  0.8405E-02  0.5524E-01
     -6.688  0.8577E-02  0.5630E-01
     -6.565  0.6154E-02  0.5705E-01
     -6.442  0.4023E-02  0.5755E-01
     -6.319  0.5836E-02  0.5827E-01
     -6.196  0.1200E-01  0.5975E-01
     -6.073  0.1027E-01  0.6101E-01
     -5.949  0.2760E-02  0.6135E-01
     -5.826  0.1858E-02  0.6158E-01
     -5.703  0.4519E-02  0.6213E-01
     -5.580  0.8204E-02  0.6314E-01
     -5.457  0.1034E-01  0.6442E-01
     -5.334  0.7624E-02  0.6535E-01
     -5.211  0.5083E-02  0.6598E-01
     -5.088  0.3591E-02  0.6642E-01
     -4.965  0.2160E-02  0.6669E-01
     -4.842  0.1643E-02  0.6689E-01
     -4.719  0.2244E-02  0.6717E-01
     -4.596  0.5146E-02  0.6780E-01
     -4.472  0.9023E-02  0.6891E-01
     -4.349  0.1223E-01  0.7041E-01
     -4.226  0.1315E-01  0.7203E-01
     -4.103  0.8273E-02  0.7305E-01
     -3.980  0.2379E-02  0.7334E-01
     -3.857  0.7132E-03  0.7343E-01
     -3.734  0.2674E-02  0.7376E-01
     -3.611  0.4356E-02  0.7430E-01
     -3.488  0.3858E-02  0.7477E-01
     -3.365  0.1943E-02  0.7501E-01
     -3.242  0.5446E-03  0.7508E-01
     -3.119  0.1338E-02  0.7524E-01
     -2.995  0.2794E-02  0.7559E-01
     -2.872  0.4152E-02  0.7610E-01
     -2.749  0.7640E-02  0.7704E-01
     -2.626  0.1024E-01  0.7830E-01
     -2.503  0.7675E-02  0.7924E-01
     -2.380  0.2560E-02  0.7956E-01
     -2.257 -0.1119E-03  0.7954E-01
     -2.134 -0.2536E-03  0.7951E-01
     -2.011 -0.4947E-04  0.7951E-01
     -1.888 -0.3650E-05  0.7951E-01
     -1.765 -0.1173E-06  0.7951E-01
     -1.642 -0.3574E-07  0.7951E-01
     -1.518 -0.1176E-05  0.7951E-01
     -1.395 -0.1692E-04  0.7950E-01
     -1.272 -0.8381E-04  0.7949E-01
     -1.149  0.3067E-04  0.7950E-01
     -1.026  0.1016E-02  0.7962E-01
     -0.903  0.1885E-02  0.7985E-01
     -0.780  0.1358E-02  0.8002E-01
     -0.657  0.1554E-02  0.8021E-01
     -0.534  0.1785E-02  0.8043E-01
     -0.411  0.6323E-03  0.8051E-01
     -0.288 -0.6665E-04  0.8050E-01
     -0.165 -0.5989E-04  0.8049E-01
     -0.042 -0.8627E-05  0.8049E-01
      0.082 -0.4746E-05  0.8049E-01
      0.205 -0.4127E-04  0.8049E-01
      0.328 -0.1186E-03  0.8047E-01
      0.451  0.1903E-03  0.8050E-01
      0.574  0.1332E-02  0.8066E-01
      0.697  0.3149E-02  0.8105E-01
      0.820  0.6256E-02  0.8182E-01
      0.943  0.8357E-02  0.8285E-01
      1.066  0.8716E-02  0.8392E-01
      1.189  0.7558E-02  0.8485E-01
      1.312  0.4195E-02  0.8537E-01
      1.435  0.2265E-02  0.8565E-01
      1.559  0.2381E-02  0.8594E-01
      1.682  0.2445E-02  0.8624E-01
      1.805  0.1410E-02  0.8641E-01
      1.928  0.1430E-03  0.8643E-01
      2.051 -0.1494E-03  0.8641E-01
      2.174  0.2391E-03  0.8644E-01
      2.297  0.9757E-03  0.8656E-01
      2.420  0.3097E-02  0.8694E-01
      2.543  0.8003E-02  0.8793E-01
      2.666  0.1270E-01  0.8949E-01
      2.789  0.1034E-01  0.9076E-01
      2.912  0.3185E-02  0.9116E-01
      3.036  0.2576E-03  0.9119E-01
      3.159  0.1920E-02  0.9142E-01
      3.282  0.4369E-02  0.9196E-01
      3.405  0.7245E-02  0.9285E-01
      3.528  0.7215E-02  0.9374E-01
      3.651  0.2816E-02  0.9409E-01
      3.774  0.2886E-02  0.9444E-01
      3.897  0.6219E-02  0.9521E-01
      4.020  0.4888E-02  0.9581E-01
      4.143  0.5716E-02  0.9651E-01
      4.266  0.9798E-02  0.9772E-01
      4.389  0.7291E-02  0.9862E-01
      4.513  0.1701E-02  0.9883E-01
      4.636 -0.5195E-03  0.9876E-01
      4.759 -0.1063E-02  0.9863E-01
      4.882  0.1279E-02  0.9879E-01
      5.005  0.1192E-01  0.1003E+00
      5.128  0.1771E-01  0.1024E+00
      5.251  0.8395E-02  0.1035E+00
      5.374  0.8005E-02  0.1045E+00
      5.497  0.1800E-01  0.1067E+00
      5.620  0.1595E-01  0.1086E+00
      5.743  0.7095E-02  0.1095E+00
      5.866  0.5147E-02  0.1101E+00
      5.990  0.4552E-02  0.1107E+00
      6.113  0.1944E-02  0.1109E+00
      6.236  0.3676E-02  0.1114E+00
      6.359  0.4727E-02  0.1120E+00
      6.482  0.4115E-02  0.1125E+00
      6.605  0.1246E-01  0.1140E+00
      6.728  0.1682E-01  0.1161E+00
      6.851  0.8739E-02  0.1172E+00
      6.974  0.6460E-02  0.1180E+00
      7.097  0.1019E-01  0.1192E+00
      7.220  0.1011E-01  0.1205E+00
      7.343  0.1216E-01  0.1220E+00
      7.467  0.2295E-01  0.1248E+00
      7.590  0.2194E-01  0.1275E+00
      7.713  0.9140E-02  0.1286E+00
      7.836  0.8569E-02  0.1297E+00
      7.959  0.1247E-01  0.1312E+00
      8.082  0.1181E-01  0.1326E+00
      8.205  0.1459E-01  0.1344E+00
      8.328  0.1676E-01  0.1365E+00
      8.451  0.1366E-01  0.1382E+00
      8.574  0.8681E-02  0.1393E+00
      8.697  0.6067E-02  0.1400E+00
      8.820  0.7404E-02  0.1409E+00
      8.943  0.1145E-01  0.1423E+00
      9.067  0.9783E-02  0.1435E+00
      9.190  0.2332E-02  0.1438E+00
      9.313 -0.5890E-03  0.1437E+00
      9.436 -0.5276E-03  0.1437E+00
      9.559 -0.9540E-03  0.1436E+00
      9.682  0.1617E-02  0.1438E+00
      9.805  0.1287E-01  0.1453E+00
      9.928  0.1847E-01  0.1476E+00
     10.051  0.1021E-01  0.1489E+00
     10.174  0.1054E-01  0.1502E+00
     10.297  0.1471E-01  0.1520E+00
     10.420  0.8938E-02  0.1531E+00
     10.544  0.5655E-02  0.1538E+00
     10.667  0.8173E-02  0.1548E+00
     10.790  0.7599E-02  0.1557E+00
     10.913  0.6498E-02  0.1565E+00
     11.036  0.9118E-02  0.1576E+00
     11.159  0.8395E-02  0.1587E+00
     11.282  0.3164E-02  0.1591E+00
     11.405 -0.1656E-04  0.1591E+00
     11.528 -0.2869E-03  0.1590E+00
     11.651 -0.6704E-04  0.1590E+00
     11.774 -0.5213E-04  0.1590E+00
     11.897 -0.9986E-04  0.1590E+00
     12.021  0.3883E-03  0.1590E+00
     12.144  0.1678E-02  0.1592E+00
     12.267  0.2429E-02  0.1595E+00
     12.390  0.2331E-02  0.1598E+00
     12.513  0.1326E-02  0.1600E+00
     12.636  0.1590E-03  0.1600E+00
     12.759 -0.1027E-03  0.1600E+00
     12.882 -0.2960E-04  0.1600E+00
     13.005 -0.2643E-05  0.1600E+00
     13.128 -0.9599E-07  0.1600E+00
     13.251 -0.1523E-08  0.1600E+00
     13.374 -0.1087E-10  0.1600E+00
     13.498 -0.3538E-13  0.1600E+00
     13.621 -0.5256E-16  0.1600E+00
     13.744  0.0000E+00  0.1600E+00
     13.867  0.0000E+00  0.1600E+00
     13.990  0.0000E+00  0.1600E+00
     14.113  0.0000E+00  0.1600E+00
     14.236  0.0000E+00  0.1600E+00
     14.359  0.0000E+00  0.1600E+00
