    2    2  100    1
  0.2580196E+02  0.2441046E-09  0.2441046E-09  0.1000000E-08  0.1000000E-15
   300.00000000000000     
  CAR 
 unknown system                          
      8     41      8

  0.1262379E-14  0.1262379E-14  0.1262379E-14  0.1234568E-01
      1        -20.565526   1.000000
      2         -8.627946   1.000000
      3         -4.168927   1.000000
      4         -3.435566   1.000000
      5          2.237210  -0.000000
      6          3.820627   0.000000
      7          5.070324   0.000000
      8          7.242078   0.000000

  0.1111111E+00  0.1262879E-14  0.1262379E-14  0.2469136E-01
      1        -20.269916   1.000000
      2         -8.268773   1.000000
      3         -5.222519   1.000000
      4         -4.101858   1.000000
      5          2.642545  -0.000000
      6          4.223279   0.000000
      7          5.470085   0.000000
      8          8.017639   0.000000

  0.1262379E-14  0.1111111E+00  0.1262379E-14  0.2469136E-01
      1        -20.269026   1.000000
      2         -8.271361   1.000000
      3         -5.091250   1.000000
      4         -4.243130   1.000000
      5          2.642273  -0.000000
      6          4.222533   0.000000
      7          5.468781   0.000000
      8          7.618523   0.000000

 -0.1111111E+00  0.1111111E+00  0.1262379E-14  0.2469136E-01
      1        -20.268178   1.000000
      2         -8.273846   1.000000
      3         -4.847379   1.000000
      4         -4.504620   1.000000
      5          2.641958  -0.000000
      6          4.221783   0.000000
      7          5.467556   0.000000
      8          7.488231   0.000000

  0.2222222E+00  0.1276756E-14  0.1262379E-14  0.2469136E-01
      1        -19.388925   1.000000
      2         -7.713231   1.000000
      3         -7.206836   1.000000
      4         -5.382486   1.000000
      5          3.856636   0.000000
      6          5.419378   0.000000
      7          6.652193   0.000000
      8          7.364455   0.000000

  0.1262379E-14  0.2222222E+00  0.1262379E-14  0.2469136E-01
      1        -19.385417   1.000000
      2         -7.567079   1.000000
      3         -7.218820   1.000000
      4         -5.558137   1.000000
      5          3.856329   0.000000
      6          5.412606   0.000000
      7          6.646287   0.000000
      8          7.444347   0.000000

 -0.2222222E+00  0.2222222E+00  0.1262379E-14  0.2469136E-01
      1        -19.382101   1.000000
      2         -7.382320   1.000000
      3         -7.229219   1.000000
      4         -5.785109   1.000000
      5          3.856009   0.000000
      6          5.406125   0.000000
      7          6.641785   0.000000
      8          7.536793   0.000000

  0.3333333E+00  0.1249001E-14  0.1262379E-14  0.2469136E-01
      1        -17.941854   1.000000
      2        -10.634035   1.000000
      3         -6.481639   1.000000
      4         -5.516939   1.000000
      5          4.113577   0.000000
      6          5.874515   0.000000
      7          7.301593   0.000000
      8          7.442991   0.000000

  0.1262379E-14  0.3333333E+00  0.1262379E-14  0.2469136E-01
      1        -17.935095   1.000000
      2        -10.526996   1.000000
      3         -6.632998   1.000000
      4         -5.555482   1.000000
      5          4.231864   0.000000
      6          5.874178   0.000000
      7          7.183540   0.000000
      8          7.449945   0.000000

 -0.3333333E+00  0.3333333E+00  0.1262379E-14  0.2469136E-01
      1        -17.928865   1.000000
      2        -10.410318   1.000000
      3         -6.804731   1.000000
      4         -5.591942   1.000000
      5          4.344965   0.000000
      6          5.874195   0.000000
      7          7.137464   0.000000
      8          7.458098   0.000000

  0.4444444E+00  0.1304512E-14  0.1262379E-14  0.2469136E-01
      1        -15.983899   1.000000
      2        -13.421575   1.000000
      3         -7.081713   1.000000
      4         -3.547069   1.000000
      5          1.251309  -0.000000
      6          7.002202   0.000000
      7          8.692492   0.000000
      8         10.167938   0.000000

  0.1262379E-14  0.4444444E+00  0.1262379E-14  0.2469136E-01
      1        -15.989073   1.000000
      2        -13.322764   1.000000
      3         -7.218407   1.000000
      4         -3.665010   1.000000
      5          1.462190  -0.000000
      6          6.913272   0.000000
      7          8.695511   0.000000
      8         10.167346   0.000000

 -0.4444444E+00  0.4444444E+00  0.1262379E-14  0.2469136E-01
      1        -15.995218   1.000000
      2        -13.220113   1.000000
      3         -7.368421   1.000000
      4         -3.770820   1.000000
      5          1.658538  -0.000000
      6          6.883809   0.000000
      7          8.698116   0.000000
      8         10.166776   0.000000

  0.1111111E+00  0.1111111E+00  0.1262379E-14  0.2469136E-01
      1        -19.681592   1.000000
      2         -7.559205   1.000000
      3         -6.761239   1.000000
      4         -5.319809   1.000000
      5          3.453458   0.000000
      6          5.024718   0.000000
      7          6.271536   0.000000
      8          8.184033   0.000000

 -0.1111111E+00  0.2222222E+00  0.1262379E-14  0.2469136E-01
      1        -19.676515   1.000000
      2         -7.574711   1.000000
      3         -6.303496   1.000000
      4         -5.814017   1.000000
      5          3.451764   0.000000
      6          5.020170   0.000000
      7          6.262875   0.000000
      8          8.013829   0.000000

 -0.2222222E+00  0.1111111E+00  0.1262379E-14  0.2469136E-01
      1        -19.679115   1.000000
      2         -7.566799   1.000000
      3         -6.579288   1.000000
      4         -5.525546   1.000000
      5          3.452683   0.000000
      6          5.022345   0.000000
      7          6.268151   0.000000
      8          8.240074   0.000000

  0.2222222E+00  0.1111111E+00  0.1262379E-14  0.2469136E-01
      1        -18.518398   1.000000
      2         -9.186723   1.000000
      3         -6.795648   1.000000
      4         -6.172681   1.000000
      5          5.057700   0.000000
      6          5.435545   0.000000
      7          6.623346   0.000000
      8          7.872424   0.000000

 -0.1111111E+00  0.3333333E+00  0.1262379E-14  0.2469136E-01
      1        -18.508179   1.000000
      2         -8.961179   1.000000
      3         -7.063421   1.000000
      4         -6.212277   1.000000
      5          5.060163   0.000000
      6          5.606514   0.000000
      7          6.619970   0.000000
      8          7.835462   0.000000

 -0.3333333E+00  0.2222222E+00  0.1262379E-14  0.2469136E-01
      1        -18.509782   1.000000
      2         -8.921582   1.000000
      3         -7.120160   1.000000
      4         -6.209779   1.000000
      5          5.061767   0.000000
      6          5.573245   0.000000
      7          6.641490   0.000000
      8          7.859960   0.000000

 -0.2222222E+00  0.3333333E+00  0.1262379E-14  0.2469136E-01
      1        -18.505851   1.000000
      2         -8.841649   1.000000
      3         -7.207711   1.000000
      4         -6.223721   1.000000
      5          5.061302   0.000000
      6          5.642704   0.000000
      7          6.633468   0.000000
      8          7.833985   0.000000

  0.1111111E+00  0.2222222E+00  0.1262379E-14  0.2469136E-01
      1        -18.515884   1.000000
      2         -9.098307   1.000000
      3         -6.904248   1.000000
      4         -6.184765   1.000000
      5          5.059753   0.000000
      6          5.474112   0.000000
      7          6.634736   0.000000
      8          7.872027   0.000000

  0.3333333E+00 -0.1111111E+00  0.1262379E-14  0.2469136E-01
      1        -18.514624   1.000000
      2         -9.125293   1.000000
      3         -6.871542   1.000000
      4         -6.186252   1.000000
      5          5.058762   0.000000
      6          5.498201   0.000000
      7          6.616772   0.000000
      8          7.861686   0.000000

  0.3333333E+00  0.1111111E+00  0.1262379E-14  0.2469136E-01
      1        -16.811905   1.000000
      2        -11.935022   1.000000
      3         -7.754189   1.000000
      4         -4.253839   1.000000
      5          2.435710  -0.000000
      6          7.477409   0.000000
      7          8.410686   0.000000
      8          8.949015   0.000000

 -0.1111111E+00  0.4444444E+00  0.1262379E-14  0.2469136E-01
      1        -16.800692   1.000000
      2        -11.818244   1.000000
      3         -7.915675   1.000000
      4         -4.345035   1.000000
      5          2.652306  -0.000000
      6          7.466389   0.000000
      7          8.246652   0.000000
      8          8.927443   0.000000

 -0.4444444E+00  0.3333333E+00  0.1262379E-14  0.2469136E-01
      1        -16.802355   1.000000
      2        -11.734215   1.000000
      3         -8.032497   1.000000
      4         -4.375748   1.000000
      5          2.718793  -0.000000
      6          7.478786   0.000000
      7          8.255823   0.000000
      8          8.944327   0.000000

 -0.3333333E+00  0.4444444E+00  0.1262379E-14  0.2469136E-01
      1        -16.798244   1.000000
      2        -11.720080   1.000000
      3         -8.051548   1.000000
      4         -4.394332   1.000000
      5          2.767940  -0.000000
      6          7.469846   0.000000
      7          8.210063   0.000000
      8          8.930692   0.000000

  0.1111111E+00  0.3333333E+00  0.1262379E-14  0.2469136E-01
      1        -16.808787   1.000000
      2        -11.844905   1.000000
      3         -7.876220   1.000000
      4         -4.307531   1.000000
      5          2.556726  -0.000000
      6          7.480648   0.000000
      7          8.317857   0.000000
      8          8.952756   0.000000

  0.4444444E+00 -0.1111111E+00  0.1262379E-14  0.2469136E-01
      1        -16.807921   1.000000
      2        -11.922372   1.000000
      3         -7.774746   1.000000
      4         -4.272802   1.000000
      5          2.482234  -0.000000
      6          7.472379   0.000000
      7          8.384969   0.000000
      8          8.937299   0.000000

  0.4444444E+00  0.1111111E+00  0.1262379E-14  0.2469136E-01
      1        -14.915098   1.000000
      2        -14.219263   1.000000
      3         -8.081120   1.000000
      4         -2.794950   1.000000
      5          0.583504  -0.000000
      6          8.226799   0.000000
      7         10.581278   0.000000
      8         10.692663   0.000000

 -0.1111111E+00 -0.4444444E+00  0.1262379E-14  0.2469136E-01
      1        -15.003132   1.000000
      2        -14.039560   1.000000
      3         -8.205154   1.000000
      4         -2.955965   1.000000
      5          0.833044  -0.000000
      6          8.129125   0.000000
      7         10.565938   0.000000
      8         10.721306   0.000000

  0.4444444E+00  0.4444444E+00  0.1262379E-14  0.2469136E-01
      1        -15.068917   1.000000
      2        -13.878726   1.000000
      3         -8.340333   1.000000
      4         -3.093959   1.000000
      5          1.057418  -0.000000
      6          8.092473   0.000000
      7         10.550757   0.000000
      8         10.745227   0.000000

  0.2222222E+00  0.2222222E+00  0.1262379E-14  0.2469136E-01
      1        -17.093390   1.000000
      2        -10.687216   1.000000
      3         -8.903099   1.000000
      4         -4.536552   1.000000
      5          3.137092  -0.000000
      6          7.084951   0.000000
      7          8.485199   0.000000
      8          9.873235   0.000000

 -0.2222222E+00  0.4444444E+00  0.1262379E-14  0.2469136E-01
      1        -17.079082   1.000000
      2        -10.380644   1.000000
      3         -9.251618   1.000000
      4         -4.619182   1.000000
      5          3.376963   0.000000
      6          7.083519   0.000000
      7          8.443742   0.000000
      8          9.825797   0.000000

 -0.4444444E+00  0.2222222E+00  0.1262379E-14  0.2469136E-01
      1        -17.086439   1.000000
      2        -10.549311   1.000000
      3         -9.065103   1.000000
      4         -4.577423   1.000000
      5          3.253423   0.000000
      6          7.084819   0.000000
      7          8.466059   0.000000
      8          9.861079   0.000000

  0.3333333E+00  0.2222222E+00  0.1262379E-14  0.2469136E-01
      1        -15.188235   1.000000
      2        -12.825930   1.000000
      3         -9.954832   1.000000
      4         -2.536156   1.000000
      5          0.769303  -0.000000
      6          9.834517   0.000000
      7         10.317990   0.000000
      8         11.121379   0.000000

 -0.2222222E+00 -0.4444444E+00  0.1262379E-14  0.2469136E-01
      1        -15.196087   1.000000
      2        -12.672002   1.000000
      3        -10.120210   1.000000
      4         -2.702299   1.000000
      5          1.038693  -0.000000
      6          9.824891   0.000000
      7         10.207039   0.000000
      8         10.979098   0.000000

  0.4444444E+00  0.3333333E+00  0.1262379E-14  0.2469136E-01
      1        -15.209207   1.000000
      2        -12.606952   1.000000
      3        -10.182809   1.000000
      4         -2.720857   1.000000
      5          1.066599  -0.000000
      6          9.839839   0.000000
      7         10.232647   0.000000
      8         10.991922   0.000000

 -0.3333333E+00 -0.4444444E+00  0.1262379E-14  0.2469136E-01
      1        -15.207331   1.000000
      2        -12.571604   1.000000
      3        -10.223071   1.000000
      4         -2.764795   1.000000
      5          1.142529  -0.000000
      6          9.831631   0.000000
      7         10.185425   0.000000
      8         10.942189   0.000000

  0.2222222E+00  0.3333333E+00  0.1262379E-14  0.2469136E-01
      1        -15.199320   1.000000
      2        -12.737384   1.000000
      3        -10.043463   1.000000
      4         -2.610196   1.000000
      5          0.885296  -0.000000
      6          9.838308   0.000000
      7         10.297556   0.000000
      8         11.029435   0.000000

 -0.4444444E+00 -0.2222222E+00  0.1262379E-14  0.2469136E-01
      1        -15.186889   1.000000
      2        -12.795223   1.000000
      3         -9.991982   1.000000
      4         -2.584926   1.000000
      5          0.847403  -0.000000
      6          9.829688   0.000000
      7         10.274683   0.000000
      8         11.122260   0.000000

  0.3333333E+00  0.3333333E+00  0.1262379E-14  0.2469136E-01
      1        -13.609966   1.000000
      2        -13.373953   1.000000
      3        -11.573784   1.000000
      4         -0.962324   0.995030
      5         -0.634256   0.004970
      6          9.891797   0.000000
      7         12.141622   0.000000
      8         12.359099   0.000000
