       N       E                     dE             d eps       ncg     rms          rms(c)
DAV:   1     0.514645602114E+02    0.51465E+02   -0.33812E+03   664   0.657E+02
DAV:   2    -0.167326301984E+02   -0.68197E+02   -0.61324E+02   816   0.315E+02
DAV:   3    -0.193458070635E+02   -0.26132E+01   -0.26134E+01  1040   0.479E+01
DAV:   4    -0.193637628654E+02   -0.17956E-01   -0.17956E-01   952   0.428E+00
DAV:   5    -0.193637916386E+02   -0.28773E-04   -0.28773E-04  1016   0.188E-01    0.179E+01
DAV:   6    -0.184112274738E+02    0.95256E+00   -0.90867E-01  1120   0.120E+01    0.127E+01
DAV:   7    -0.180926026847E+02    0.31862E+00   -0.23449E+00  1192   0.174E+01    0.164E+00
DAV:   8    -0.180254987408E+02    0.67104E-01   -0.25551E-01   872   0.647E+00    0.254E-01
DAV:   9    -0.180236263064E+02    0.18724E-02   -0.32224E-03   928   0.555E-01    0.110E-01
DAV:  10    -0.180219933453E+02    0.16330E-02   -0.69059E-04   896   0.170E-01    0.694E-02
DAV:  11    -0.180193949126E+02    0.25984E-02   -0.37396E-03   680   0.331E-01    0.501E-02
DAV:  12    -0.180216581360E+02   -0.22632E-02   -0.33630E-04   792   0.131E-01    0.317E-02
DAV:  13    -0.180218011943E+02   -0.14306E-03   -0.24966E-05   704   0.527E-02    0.202E-02
DAV:  14    -0.180221838053E+02   -0.38261E-03   -0.80157E-05   680   0.489E-02    0.555E-03
DAV:  15    -0.180222078461E+02   -0.24041E-04   -0.19120E-06   848   0.110E-02
      1 T=     0. E= -.18022182E+02 F= -.18022208E+02 E0= -.18022369E+02  EK= 0.25447E-04 SP= 0.00E+00 SK= 0.00E+00
       N       E                     dE             d eps       ncg     rms          rms(c)
DAV:   1    -0.180224150293E+02   -0.23122E-03   -0.18507E-06   864   0.137E-02    0.154E-03
DAV:   2    -0.180224155054E+02   -0.47611E-06   -0.19141E-08   912   0.165E-03
      2 T=     2. E= -.18022187E+02 F= -.18022416E+02 E0= -.18022576E+02  EK= 0.22897E-03 SP= 0.00E+00 SK= 0.00E+00
       N       E                     dE             d eps       ncg     rms          rms(c)
DAV:   1    -0.180228228427E+02   -0.40781E-03   -0.21056E-06   928   0.147E-02    0.182E-03
DAV:   2    -0.180228228564E+02   -0.13710E-07   -0.29516E-08   592   0.221E-03
      3 T=     5. E= -.18022187E+02 F= -.18022823E+02 E0= -.18022982E+02  EK= 0.63575E-03 SP= 0.00E+00 SK= 0.00E+00
       N       E                     dE             d eps       ncg     rms          rms(c)
DAV:   1    -0.180234323677E+02   -0.60952E-03   -0.15629E-05   544   0.409E-02    0.342E-03
DAV:   2    -0.180234324039E+02   -0.36166E-07   -0.45859E-07   336   0.122E-02
      4 T=    10. E= -.18022187E+02 F= -.18023432E+02 E0= -.18023589E+02  EK= 0.12452E-02 SP= 0.00E+00 SK= 0.00E+00
       N       E                     dE             d eps       ncg     rms          rms(c)
DAV:   1    -0.180242436742E+02   -0.81131E-03   -0.28378E-05   328   0.567E-02    0.628E-03
DAV:   2    -0.180242438031E+02   -0.12893E-06   -0.15074E-06   328   0.259E-02
      5 T=    16. E= -.18022187E+02 F= -.18024244E+02 E0= -.18024398E+02  EK= 0.20564E-02 SP= 0.00E+00 SK= 0.00E+00
       N       E                     dE             d eps       ncg     rms          rms(c)
DAV:   1    -0.180252556976E+02   -0.10120E-02   -0.45763E-05   328   0.742E-02    0.857E-03
DAV:   2    -0.180252559388E+02   -0.24119E-06   -0.28408E-06   328   0.386E-02
      6 T=    24. E= -.18022188E+02 F= -.18025256E+02 E0= -.18025406E+02  EK= 0.30680E-02 SP= 0.00E+00 SK= 0.00E+00
       N       E                     dE             d eps       ncg     rms          rms(c)
DAV:   1    -0.180264671198E+02   -0.12114E-02   -0.66942E-05   352   0.902E-02    0.103E-02
DAV:   2    -0.180264674418E+02   -0.32196E-06   -0.39750E-06   328   0.462E-02
      7 T=    33. E= -.18022189E+02 F= -.18026467E+02 E0= -.18026613E+02  EK= 0.42789E-02 SP= 0.00E+00 SK= 0.00E+00
       N       E                     dE             d eps       ncg     rms          rms(c)
DAV:   1    -0.180278768127E+02   -0.14097E-02   -0.93948E-05   568   0.105E-01    0.998E-03
DAV:   2    -0.180278769776E+02   -0.16491E-06   -0.29097E-06   328   0.320E-02
      8 T=    44. E= -.18022189E+02 F= -.18027877E+02 E0= -.18028017E+02  EK= 0.56878E-02 SP= 0.00E+00 SK= 0.00E+00
       N       E                     dE             d eps       ncg     rms          rms(c)
DAV:   1    -0.180294825249E+02   -0.16057E-02   -0.11645E-04   688   0.113E-01    0.940E-03
DAV:   2    -0.180294826151E+02   -0.90285E-07   -0.21088E-06   344   0.240E-02
      9 T=    56. E= -.18022190E+02 F= -.18029483E+02 E0= -.18029617E+02  EK= 0.72931E-02 SP= 0.00E+00 SK= 0.00E+00
       N       E                     dE             d eps       ncg     rms          rms(c)
DAV:   1    -0.180312822270E+02   -0.17997E-02   -0.14440E-04   736   0.124E-01    0.865E-03
DAV:   2    -0.180312822426E+02   -0.15642E-07   -0.13381E-06   328   0.181E-02
     10 T=    70. E= -.18022190E+02 F= -.18031282E+02 E0= -.18031410E+02  EK= 0.90925E-02 SP= 0.00E+00 SK= 0.00E+00
       N       E                     dE             d eps       ncg     rms          rms(c)
DAV:   1    -0.180332733590E+02   -0.19911E-02   -0.17512E-04   752   0.135E-01    0.848E-03
DAV:   2    -0.180332733907E+02   -0.31765E-07   -0.15185E-06   336   0.192E-02
     11 T=    86. E= -.18022190E+02 F= -.18033273E+02 E0= -.18033393E+02  EK= 0.11084E-01 SP= 0.00E+00 SK= 0.00E+00
       N       E                     dE             d eps       ncg     rms          rms(c)
DAV:   1    -0.180354533346E+02   -0.21800E-02   -0.21174E-04   720   0.148E-01    0.926E-03
DAV:   2    -0.180354533613E+02   -0.26649E-07   -0.17507E-06   328   0.212E-02
     12 T=   103. E= -.18022190E+02 F= -.18035453E+02 E0= -.18035565E+02  EK= 0.13264E-01 SP= 0.00E+00 SK= 0.00E+00
       N       E                     dE             d eps       ncg     rms          rms(c)
DAV:   1    -0.180378192425E+02   -0.23659E-02   -0.25131E-04   824   0.161E-01    0.105E-02
DAV:   2    -0.180378192415E+02    0.10132E-08   -0.18689E-06   344   0.215E-02
     13 T=   121. E= -.18022190E+02 F= -.18037819E+02 E0= -.18037921E+02  EK= 0.15629E-01 SP= 0.00E+00 SK= 0.00E+00
       N       E                     dE             d eps       ncg     rms          rms(c)
DAV:   1    -0.180403679495E+02   -0.25487E-02   -0.29307E-04   808   0.174E-01    0.112E-02
DAV:   2    -0.180403679597E+02   -0.10211E-07   -0.21758E-06   328   0.232E-02
     14 T=   141. E= -.18022190E+02 F= -.18040368E+02 E0= -.18040460E+02  EK= 0.18178E-01 SP= 0.00E+00 SK= 0.00E+00
       N       E                     dE             d eps       ncg     rms          rms(c)
DAV:   1    -0.180430963524E+02   -0.27284E-02   -0.33919E-04   848   0.187E-01    0.121E-02
DAV:   2    -0.180430963485E+02    0.39013E-08   -0.23640E-06   352   0.235E-02
     15 T=   162. E= -.18022190E+02 F= -.18043096E+02 E0= -.18043177E+02  EK= 0.20907E-01 SP= 0.00E+00 SK= 0.00E+00
       N       E                     dE             d eps       ncg     rms          rms(c)
DAV:   1    -0.180460006380E+02   -0.29043E-02   -0.38706E-04   792   0.200E-01    0.127E-02
DAV:   2    -0.180460006695E+02   -0.31529E-07   -0.29034E-06   352   0.266E-02
     16 T=   184. E= -.18022189E+02 F= -.18046001E+02 E0= -.18046069E+02  EK= 0.23811E-01 SP= 0.00E+00 SK= 0.00E+00
       N       E                     dE             d eps       ncg     rms          rms(c)
DAV:   1    -0.180490772969E+02   -0.30767E-02   -0.44012E-04   856   0.213E-01    0.138E-02
DAV:   2    -0.180490772973E+02   -0.41973E-09   -0.30854E-06   376   0.265E-02
     17 T=   208. E= -.18022189E+02 F= -.18049077E+02 E0= -.18049133E+02  EK= 0.26888E-01 SP= 0.00E+00 SK= 0.00E+00
       N       E                     dE             d eps       ncg     rms          rms(c)
DAV:   1    -0.180523220024E+02   -0.32447E-02   -0.49366E-04   856   0.226E-01    0.145E-02
DAV:   2    -0.180523220142E+02   -0.11772E-07   -0.34680E-06   384   0.281E-02
     18 T=   233. E= -.18022189E+02 F= -.18052322E+02 E0= -.18052363E+02  EK= 0.30133E-01 SP= 0.00E+00 SK= 0.00E+00
       N       E                     dE             d eps       ncg     rms          rms(c)
DAV:   1    -0.180557310514E+02   -0.34090E-02   -0.55139E-04   840   0.239E-01    0.155E-02
DAV:   2    -0.180557310728E+02   -0.21444E-07   -0.39539E-06   376   0.301E-02
     19 T=   259. E= -.18022189E+02 F= -.18055731E+02 E0= -.18055757E+02  EK= 0.33542E-01 SP= 0.00E+00 SK= 0.00E+00
       N       E                     dE             d eps       ncg     rms          rms(c)
DAV:   1    -0.180592997910E+02   -0.35687E-02   -0.61136E-04   848   0.251E-01    0.162E-02
DAV:   2    -0.180592998091E+02   -0.18157E-07   -0.43226E-06   408   0.310E-02
     20 T=   287. E= -.18022189E+02 F= -.18059300E+02 E0= -.18059310E+02  EK= 0.37111E-01 SP= 0.00E+00 SK= 0.00E+00
       N       E                     dE             d eps       ncg     rms          rms(c)
DAV:   1    -0.180630233807E+02   -0.37236E-02   -0.67452E-04   808   0.265E-01    0.174E-02
DAV:   2    -0.180630234320E+02   -0.51326E-07   -0.52577E-06   472   0.352E-02
     21 T=   316. E= -.18022189E+02 F= -.18063023E+02 E0= -.18063016E+02  EK= 0.40834E-01 SP= 0.00E+00 SK= 0.00E+00
       N       E                     dE             d eps       ncg     rms          rms(c)
DAV:   1    -0.180668971889E+02   -0.38738E-02   -0.73826E-04   824   0.277E-01    0.174E-02
DAV:   2    -0.180668972825E+02   -0.93563E-07   -0.56232E-06   512   0.359E-02
     22 T=   346. E= -.18022189E+02 F= -.18066897E+02 E0= -.18066871E+02  EK= 0.44708E-01 SP= 0.00E+00 SK= 0.00E+00
       N       E                     dE             d eps       ncg     rms          rms(c)
DAV:   1    -0.180709161960E+02   -0.40190E-02   -0.80765E-04   800   0.290E-01    0.189E-02
DAV:   2    -0.180709162560E+02   -0.60070E-07   -0.62233E-06   440   0.390E-02
     23 T=   377. E= -.18022189E+02 F= -.18070916E+02 E0= -.18070871E+02  EK= 0.48728E-01 SP= 0.00E+00 SK= 0.00E+00
       N       E                     dE             d eps       ncg     rms          rms(c)
DAV:   1    -0.180750757675E+02   -0.41596E-02   -0.87707E-04   808   0.302E-01    0.195E-02
DAV:   2    -0.180750758651E+02   -0.97577E-07   -0.69086E-06   568   0.393E-02
     24 T=   409. E= -.18022188E+02 F= -.18075076E+02 E0= -.18075010E+02  EK= 0.52888E-01 SP= 0.00E+00 SK= 0.00E+00
       N       E                     dE             d eps       ncg     rms          rms(c)
DAV:   1    -0.180793707905E+02   -0.42950E-02   -0.94945E-04   808   0.314E-01    0.205E-02
DAV:   2    -0.180793709074E+02   -0.11691E-06   -0.76082E-06   552   0.419E-02
     25 T=   442. E= -.18022188E+02 F= -.18079371E+02 E0= -.18079283E+02  EK= 0.57183E-01 SP= 0.00E+00 SK= 0.00E+00
       N       E                     dE             d eps       ncg     rms          rms(c)
DAV:   1    -0.180837950783E+02   -0.44243E-02   -0.10223E-03   784   0.326E-01    0.208E-02
DAV:   2    -0.180837952663E+02   -0.18802E-06   -0.84841E-06   584   0.450E-02
     26 T=   477. E= -.18022188E+02 F= -.18083795E+02 E0= -.18083685E+02  EK= 0.61608E-01 SP= 0.00E+00 SK= 0.00E+00
       N       E                     dE             d eps       ncg     rms          rms(c)
DAV:   1    -0.180883436642E+02   -0.45486E-02   -0.11009E-03   768   0.339E-01    0.218E-02
DAV:   2    -0.180883438421E+02   -0.17788E-06   -0.91866E-06   648   0.462E-02
     27 T=   512. E= -.18022187E+02 F= -.18088344E+02 E0= -.18088210E+02  EK= 0.66156E-01 SP= 0.00E+00 SK= 0.00E+00
       N       E                     dE             d eps       ncg     rms          rms(c)
DAV:   1    -0.180930110267E+02   -0.46674E-02   -0.11772E-03   768   0.351E-01    0.226E-02
DAV:   2    -0.180930112670E+02   -0.24027E-06   -0.10262E-05   688   0.494E-02
     28 T=   548. E= -.18022187E+02 F= -.18093011E+02 E0= -.18092852E+02  EK= 0.70824E-01 SP= 0.00E+00 SK= 0.00E+00
       N       E                     dE             d eps       ncg     rms          rms(c)
DAV:   1    -0.180977921779E+02   -0.47812E-02   -0.12588E-03   720   0.363E-01    0.236E-02
DAV:   2    -0.180977924568E+02   -0.27887E-06   -0.11409E-05   696   0.533E-02
     29 T=   585. E= -.18022187E+02 F= -.18097792E+02 E0= -.18097608E+02  EK= 0.75605E-01 SP= 0.00E+00 SK= 0.00E+00
       N       E                     dE             d eps       ncg     rms          rms(c)
DAV:   1    -0.181026807821E+02   -0.48886E-02   -0.13415E-03   760   0.375E-01    0.248E-02
DAV:   2    -0.181026809699E+02   -0.18775E-06   -0.11384E-05   664   0.522E-02
     30 T=   623. E= -.18022187E+02 F= -.18102681E+02 E0= -.18102469E+02  EK= 0.80494E-01 SP= 0.00E+00 SK= 0.00E+00
       N       E                     dE             d eps       ncg     rms          rms(c)
DAV:   1    -0.181076708780E+02   -0.49901E-02   -0.14218E-03   760   0.386E-01    0.246E-02
DAV:   2    -0.181076711665E+02   -0.28851E-06   -0.12192E-05   752   0.539E-02
     31 T=   661. E= -.18022187E+02 F= -.18107671E+02 E0= -.18107432E+02  EK= 0.85484E-01 SP= 0.00E+00 SK= 0.00E+00
       N       E                     dE             d eps       ncg     rms          rms(c)
DAV:   1    -0.181127551477E+02   -0.50843E-02   -0.15090E-03   736   0.398E-01    0.261E-02
DAV:   2    -0.181127554624E+02   -0.31478E-06   -0.13708E-05   752   0.576E-02
     32 T=   701. E= -.18022187E+02 F= -.18112755E+02 E0= -.18112487E+02  EK= 0.90569E-01 SP= 0.00E+00 SK= 0.00E+00
       N       E                     dE             d eps       ncg     rms          rms(c)
DAV:   1    -0.181179271831E+02   -0.51720E-02   -0.15940E-03   752   0.409E-01    0.265E-02
DAV:   2    -0.181179275348E+02   -0.35166E-06   -0.14203E-05   792   0.582E-02
     33 T=   741. E= -.18022186E+02 F= -.18117928E+02 E0= -.18117629E+02  EK= 0.95741E-01 SP= 0.00E+00 SK= 0.00E+00
       N       E                     dE             d eps       ncg     rms          rms(c)
DAV:   1    -0.181231808691E+02   -0.52537E-02   -0.16802E-03   728   0.420E-01    0.274E-02
DAV:   2    -0.181231812895E+02   -0.42046E-06   -0.15598E-05   800   0.623E-02
     34 T=   781. E= -.18022186E+02 F= -.18123181E+02 E0= -.18122853E+02  EK= 0.10100E+00 SP= 0.00E+00 SK= 0.00E+00
       N       E                     dE             d eps       ncg     rms          rms(c)
DAV:   1    -0.181285099931E+02   -0.53291E-02   -0.17683E-03   712   0.431E-01    0.279E-02
DAV:   2    -0.181285104809E+02   -0.48779E-06   -0.16780E-05   872   0.652E-02
     35 T=   823. E= -.18022185E+02 F= -.18128510E+02 E0= -.18128151E+02  EK= 0.10633E+00 SP= 0.00E+00 SK= 0.00E+00
       N       E                     dE             d eps       ncg     rms          rms(c)
DAV:   1    -0.181339083747E+02   -0.53984E-02   -0.18577E-03   704   0.442E-01    0.289E-02
DAV:   2    -0.181339088922E+02   -0.51742E-06   -0.17951E-05   824   0.689E-02
     36 T=   864. E= -.18022185E+02 F= -.18133909E+02 E0= -.18133517E+02  EK= 0.11172E+00 SP= 0.00E+00 SK= 0.00E+00
       N       E                     dE             d eps       ncg     rms          rms(c)
DAV:   1    -0.181393683269E+02   -0.54600E-02   -0.19472E-03   704   0.452E-01    0.293E-02
DAV:   2    -0.181393689378E+02   -0.61085E-06   -0.19312E-05   936   0.701E-02
     37 T=   907. E= -.18022184E+02 F= -.18139369E+02 E0= -.18138945E+02  EK= 0.11718E+00 SP= 0.00E+00 SK= 0.00E+00
       N       E                     dE             d eps       ncg     rms          rms(c)
DAV:   1    -0.181448845033E+02   -0.55162E-02   -0.20381E-03   704   0.464E-01    0.304E-02
DAV:   2    -0.181448850849E+02   -0.58155E-06   -0.19787E-05   888   0.732E-02
     38 T=   949. E= -.18022184E+02 F= -.18144885E+02 E0= -.18144429E+02  EK= 0.12270E+00 SP= 0.00E+00 SK= 0.00E+00
       N       E                     dE             d eps       ncg     rms          rms(c)
DAV:   1    -0.181504503629E+02   -0.55659E-02   -0.21299E-03   704   0.474E-01    0.311E-02
DAV:   2    -0.181504509542E+02   -0.59131E-06   -0.20740E-05   872   0.743E-02
     39 T=   992. E= -.18022183E+02 F= -.18150451E+02 E0= -.18149962E+02  EK= 0.12827E+00 SP= 0.00E+00 SK= 0.00E+00
       N       E                     dE             d eps       ncg     rms          rms(c)
DAV:   1    -0.181560582406E+02   -0.56079E-02   -0.22240E-03   704   0.484E-01    0.319E-02
DAV:   2    -0.181560588459E+02   -0.60534E-06   -0.21569E-05   904   0.761E-02
     40 T=  1036. E= -.18022183E+02 F= -.18156059E+02 E0= -.18155537E+02  EK= 0.13388E+00 SP= 0.00E+00 SK= 0.00E+00
       N       E                     dE             d eps       ncg     rms          rms(c)
DAV:   1    -0.181617008013E+02   -0.56426E-02   -0.23147E-03   720   0.494E-01    0.324E-02
DAV:   2    -0.181617014125E+02   -0.61117E-06   -0.22155E-05   920   0.759E-02
     41 T=  1079. E= -.18022182E+02 F= -.18161701E+02 E0= -.18161146E+02  EK= 0.13952E+00 SP= 0.00E+00 SK= 0.00E+00
       N       E                     dE             d eps       ncg     rms          rms(c)
DAV:   1    -0.181673715276E+02   -0.56707E-02   -0.24064E-03   704   0.504E-01    0.330E-02
DAV:   2    -0.181673722255E+02   -0.69787E-06   -0.23290E-05   936   0.798E-02
     42 T=  1123. E= -.18022180E+02 F= -.18167372E+02 E0= -.18166785E+02  EK= 0.14519E+00 SP= 0.00E+00 SK= 0.00E+00
       N       E                     dE             d eps       ncg     rms          rms(c)
DAV:   1    -0.181730655844E+02   -0.56941E-02   -0.24998E-03   704   0.514E-01    0.337E-02
DAV:   2    -0.181730662581E+02   -0.67370E-06   -0.23840E-05   944   0.793E-02
     43 T=  1167. E= -.18022180E+02 F= -.18173066E+02 E0= -.18172446E+02  EK= 0.15089E+00 SP= 0.00E+00 SK= 0.00E+00
       N       E                     dE             d eps       ncg     rms          rms(c)
DAV:   1    -0.181787748913E+02   -0.57093E-02   -0.25927E-03   704   0.523E-01    0.345E-02
DAV:   2    -0.181787756147E+02   -0.72341E-06   -0.25103E-05   968   0.827E-02
     44 T=  1211. E= -.18022179E+02 F= -.18178776E+02 E0= -.18178124E+02  EK= 0.15660E+00 SP= 0.00E+00 SK= 0.00E+00
       N       E                     dE             d eps       ncg     rms          rms(c)
DAV:   1    -0.181844932907E+02   -0.57184E-02   -0.26837E-03   704   0.533E-01    0.349E-02
DAV:   2    -0.181844940462E+02   -0.75552E-06   -0.25567E-05   936   0.825E-02
     45 T=  1256. E= -.18022177E+02 F= -.18184494E+02 E0= -.18183812E+02  EK= 0.16232E+00 SP= 0.00E+00 SK= 0.00E+00
       N       E                     dE             d eps       ncg     rms          rms(c)
DAV:   1    -0.181902131247E+02   -0.57198E-02   -0.27774E-03   688   0.542E-01    0.352E-02
DAV:   2    -0.181902139768E+02   -0.85212E-06   -0.26971E-05   984   0.866E-02
     46 T=  1300. E= -.18022176E+02 F= -.18190214E+02 E0= -.18189502E+02  EK= 0.16804E+00 SP= 0.00E+00 SK= 0.00E+00
       N       E                     dE             d eps       ncg     rms          rms(c)
DAV:   1    -0.181959292263E+02   -0.57161E-02   -0.28698E-03   688   0.551E-01    0.362E-02
DAV:   2    -0.181959300427E+02   -0.81643E-06   -0.27568E-05   968   0.870E-02
     47 T=  1344. E= -.18022174E+02 F= -.18195930E+02 E0= -.18195189E+02  EK= 0.17376E+00 SP= 0.00E+00 SK= 0.00E+00
       N       E                     dE             d eps       ncg     rms          rms(c)
DAV:   1    -0.182016355711E+02   -0.57063E-02   -0.29612E-03   696   0.560E-01    0.365E-02
DAV:   2    -0.182016364265E+02   -0.85537E-06   -0.28157E-05  1000   0.876E-02
     48 T=  1388. E= -.18022172E+02 F= -.18201636E+02 E0= -.18200868E+02  EK= 0.17946E+00 SP= 0.00E+00 SK= 0.00E+00
       N       E                     dE             d eps       ncg     rms          rms(c)
DAV:   1    -0.182073271467E+02   -0.56916E-02   -0.30492E-03   688   0.568E-01    0.371E-02
DAV:   2    -0.182073280544E+02   -0.90768E-06   -0.29068E-05   944   0.904E-02
     49 T=  1432. E= -.18022170E+02 F= -.18207328E+02 E0= -.18206534E+02  EK= 0.18516E+00 SP= 0.00E+00 SK= 0.00E+00
       N       E                     dE             d eps       ncg     rms          rms(c)
DAV:   1    -0.182129964924E+02   -0.56693E-02   -0.31453E-03   696   0.577E-01    0.376E-02
DAV:   2    -0.182129973531E+02   -0.86068E-06   -0.29111E-05  1008   0.890E-02
     50 T=  1476. E= -.18022169E+02 F= -.18212997E+02 E0= -.18212179E+02  EK= 0.19083E+00 SP= 0.00E+00 SK= 0.00E+00
       N       E                     dE             d eps       ncg     rms          rms(c)
DAV:   1    -0.182186345530E+02   -0.56381E-02   -0.32309E-03   688   0.585E-01    0.383E-02
DAV:   2    -0.182186355601E+02   -0.10072E-05   -0.30969E-05   976   0.926E-02
     51 T=  1520. E= -.18022167E+02 F= -.18218636E+02 E0= -.18217795E+02  EK= 0.19647E+00 SP= 0.00E+00 SK= 0.00E+00
       N       E                     dE             d eps       ncg     rms          rms(c)
DAV:   1    -0.182242372210E+02   -0.56027E-02   -0.33237E-03   688   0.593E-01    0.388E-02
DAV:   2    -0.182242382064E+02   -0.98540E-06   -0.31261E-05  1008   0.938E-02
     52 T=  1563. E= -.18022165E+02 F= -.18224238E+02 E0= -.18223378E+02  EK= 0.20207E+00 SP= 0.00E+00 SK= 0.00E+00
       N       E                     dE             d eps       ncg     rms          rms(c)
DAV:   1    -0.182297966748E+02   -0.55595E-02   -0.34099E-03   696   0.601E-01    0.394E-02
DAV:   2    -0.182297976973E+02   -0.10225E-05   -0.32114E-05  1032   0.945E-02
     53 T=  1606. E= -.18022163E+02 F= -.18229798E+02 E0= -.18228920E+02  EK= 0.20763E+00 SP= 0.00E+00 SK= 0.00E+00
       N       E                     dE             d eps       ncg     rms          rms(c)
DAV:   1    -0.182353100630E+02   -0.55134E-02   -0.34960E-03   688   0.608E-01    0.400E-02
DAV:   2    -0.182353111120E+02   -0.10490E-05   -0.32692E-05  1024   0.958E-02
     54 T=  1649. E= -.18022162E+02 F= -.18235311E+02 E0= -.18234418E+02  EK= 0.21315E+00 SP= 0.00E+00 SK= 0.00E+00
       N       E                     dE             d eps       ncg     rms          rms(c)
DAV:   1    -0.182407686264E+02   -0.54586E-02   -0.35818E-03   688   0.616E-01    0.404E-02
DAV:   2    -0.182407697858E+02   -0.11594E-05   -0.33980E-05  1000   0.981E-02
     55 T=  1691. E= -.18022160E+02 F= -.18240770E+02 E0= -.18239864E+02  EK= 0.21861E+00 SP= 0.00E+00 SK= 0.00E+00
       N       E                     dE             d eps       ncg     rms          rms(c)
DAV:   1    -0.182461675138E+02   -0.53989E-02   -0.36713E-03   688   0.623E-01    0.410E-02
DAV:   2    -0.182461686523E+02   -0.11386E-05   -0.34292E-05  1040   0.983E-02
     56 T=  1733. E= -.18022159E+02 F= -.18246169E+02 E0= -.18245253E+02  EK= 0.22401E+00 SP= 0.00E+00 SK= 0.00E+00
       N       E                     dE             d eps       ncg     rms          rms(c)
DAV:   1    -0.182514995220E+02   -0.53320E-02   -0.37536E-03   696   0.630E-01    0.414E-02
DAV:   2    -0.182515007054E+02   -0.11834E-05   -0.34916E-05  1016   0.989E-02
     57 T=  1774. E= -.18022157E+02 F= -.18251501E+02 E0= -.18250578E+02  EK= 0.22934E+00 SP= 0.00E+00 SK= 0.00E+00
       N       E                     dE             d eps       ncg     rms          rms(c)
DAV:   1    -0.182567585282E+02   -0.52590E-02   -0.38476E-03   696   0.637E-01    0.419E-02
DAV:   2    -0.182567597049E+02   -0.11767E-05   -0.35140E-05  1040   0.990E-02
     58 T=  1815. E= -.18022156E+02 F= -.18256760E+02 E0= -.18255833E+02  EK= 0.23460E+00 SP= 0.00E+00 SK= 0.00E+00
       N       E                     dE             d eps       ncg     rms          rms(c)
DAV:   1    -0.182619377647E+02   -0.51792E-02   -0.39537E-03   696   0.644E-01    0.423E-02
DAV:   2    -0.182619390243E+02   -0.12596E-05   -0.36280E-05  1000   0.101E-01
     59 T=  1855. E= -.18022154E+02 F= -.18261939E+02 E0= -.18261011E+02  EK= 0.23979E+00 SP= 0.00E+00 SK= 0.00E+00
       N       E                     dE             d eps       ncg     rms          rms(c)
DAV:   1    -0.182670311691E+02   -0.50934E-02   -0.40263E-03   688   0.651E-01    0.427E-02
DAV:   2    -0.182670324674E+02   -0.12983E-05   -0.37160E-05  1056   0.103E-01
     60 T=  1894. E= -.18022152E+02 F= -.18267032E+02 E0= -.18266107E+02  EK= 0.24488E+00 SP= 0.00E+00 SK= 0.00E+00
       N       E                     dE             d eps       ncg     rms          rms(c)
DAV:   1    -0.182720352070E+02   -0.50040E-02   -0.40759E-03   688   0.657E-01    0.433E-02
DAV:   2    -0.182720365720E+02   -0.13650E-05   -0.38159E-05  1000   0.104E-01
     61 T=  1933. E= -.18022150E+02 F= -.18272037E+02 E0= -.18271116E+02  EK= 0.24989E+00 SP= 0.00E+00 SK= 0.00E+00
       N       E                     dE             d eps       ncg     rms          rms(c)
DAV:   1    -0.182769455210E+02   -0.49103E-02   -0.41503E-03   712   0.663E-01    0.436E-02
DAV:   2    -0.182769467433E+02   -0.12224E-05   -0.37047E-05  1000   0.102E-01
     62 T=  1971. E= -.18022149E+02 F= -.18276947E+02 E0= -.18276034E+02  EK= 0.25480E+00 SP= 0.00E+00 SK= 0.00E+00
       N       E                     dE             d eps       ncg     rms          rms(c)
DAV:   1    -0.182817558671E+02   -0.48103E-02   -0.42192E-03   688   0.669E-01    0.440E-02
DAV:   2    -0.182817572761E+02   -0.14090E-05   -0.39152E-05   968   0.106E-01
     63 T=  2008. E= -.18022148E+02 F= -.18281757E+02 E0= -.18280856E+02  EK= 0.25961E+00 SP= 0.00E+00 SK= 0.00E+00
       N       E                     dE             d eps       ncg     rms          rms(c)
DAV:   1    -0.182864620175E+02   -0.47062E-02   -0.42951E-03   696   0.675E-01    0.445E-02
DAV:   2    -0.182864632921E+02   -0.12746E-05   -0.38567E-05  1056   0.105E-01
     64 T=  2045. E= -.18022146E+02 F= -.18286463E+02 E0= -.18285575E+02  EK= 0.26432E+00 SP= 0.00E+00 SK= 0.00E+00
       N       E                     dE             d eps       ncg     rms          rms(c)
DAV:   1    -0.182910580681E+02   -0.45961E-02   -0.43554E-03   704   0.679E-01    0.447E-02
DAV:   2    -0.182910594853E+02   -0.14172E-05   -0.39576E-05   952   0.106E-01
     65 T=  2080. E= -.18022145E+02 F= -.18291059E+02 E0= -.18290188E+02  EK= 0.26891E+00 SP= 0.00E+00 SK= 0.00E+00
       N       E                     dE             d eps       ncg     rms          rms(c)
DAV:   1    -0.182955388835E+02   -0.44808E-02   -0.44315E-03   712   0.685E-01    0.449E-02
DAV:   2    -0.182955402369E+02   -0.13534E-05   -0.38981E-05  1016   0.105E-01
     66 T=  2115. E= -.18022143E+02 F= -.18295540E+02 E0= -.18294689E+02  EK= 0.27340E+00 SP= 0.00E+00 SK= 0.00E+00
       N       E                     dE             d eps       ncg     rms          rms(c)
DAV:   1    -0.182998981155E+02   -0.43592E-02   -0.44908E-03   688   0.690E-01    0.454E-02
DAV:   2    -0.182998996806E+02   -0.15651E-05   -0.40874E-05   992   0.109E-01
     67 T=  2149. E= -.18022141E+02 F= -.18299900E+02 E0= -.18299070E+02  EK= 0.27776E+00 SP= 0.00E+00 SK= 0.00E+00
       N       E                     dE             d eps       ncg     rms          rms(c)
DAV:   1    -0.183041338975E+02   -0.42358E-02   -0.45578E-03   704   0.695E-01    0.457E-02
DAV:   2    -0.183041352861E+02   -0.13886E-05   -0.39076E-05   960   0.105E-01
     68 T=  2182. E= -.18022139E+02 F= -.18304135E+02 E0= -.18303330E+02  EK= 0.28200E+00 SP= 0.00E+00 SK= 0.00E+00
       N       E                     dE             d eps       ncg     rms          rms(c)
DAV:   1    -0.183082428190E+02   -0.41089E-02   -0.46168E-03   704   0.700E-01    0.457E-02
DAV:   2    -0.183082445103E+02   -0.16913E-05   -0.41248E-05   968   0.109E-01
     69 T=  2213. E= -.18022138E+02 F= -.18308245E+02 E0= -.18307466E+02  EK= 0.28611E+00 SP= 0.00E+00 SK= 0.00E+00
       N       E                     dE             d eps       ncg     rms          rms(c)
DAV:   1    -0.183122213984E+02   -0.39786E-02   -0.46821E-03   712   0.705E-01    0.464E-02
DAV:   2    -0.183122228765E+02   -0.14781E-05   -0.39664E-05   960   0.106E-01
     70 T=  2244. E= -.18022135E+02 F= -.18312223E+02 E0= -.18311474E+02  EK= 0.29009E+00 SP= 0.00E+00 SK= 0.00E+00
       N       E                     dE             d eps       ncg     rms          rms(c)
DAV:   1    -0.183160647214E+02   -0.38433E-02   -0.47313E-03   704   0.709E-01    0.463E-02
DAV:   2    -0.183160664894E+02   -0.17680E-05   -0.41613E-05   992   0.109E-01
     71 T=  2274. E= -.18022133E+02 F= -.18316066E+02 E0= -.18315348E+02  EK= 0.29393E+00 SP= 0.00E+00 SK= 0.00E+00
       N       E                     dE             d eps       ncg     rms          rms(c)
DAV:   1    -0.183197688431E+02   -0.37041E-02   -0.47876E-03   720   0.713E-01    0.466E-02
DAV:   2    -0.183197703824E+02   -0.15393E-05   -0.39618E-05   944   0.105E-01
     72 T=  2303. E= -.18022131E+02 F= -.18319770E+02 E0= -.18319084E+02  EK= 0.29764E+00 SP= 0.00E+00 SK= 0.00E+00
       N       E                     dE             d eps       ncg     rms          rms(c)
DAV:   1    -0.183233286728E+02   -0.35598E-02   -0.48386E-03   704   0.717E-01    0.466E-02
DAV:   2    -0.183233305118E+02   -0.18391E-05   -0.41948E-05   992   0.109E-01
     73 T=  2330. E= -.18022130E+02 F= -.18323331E+02 E0= -.18322678E+02  EK= 0.30120E+00 SP= 0.00E+00 SK= 0.00E+00
       N       E                     dE             d eps       ncg     rms          rms(c)
DAV:   1    -0.183267410583E+02   -0.34124E-02   -0.48898E-03   728   0.721E-01    0.471E-02
DAV:   2    -0.183267425912E+02   -0.15329E-05   -0.39426E-05   904   0.104E-01
     74 T=  2357. E= -.18022129E+02 F= -.18326743E+02 E0= -.18326126E+02  EK= 0.30461E+00 SP= 0.00E+00 SK= 0.00E+00
       N       E                     dE             d eps       ncg     rms          rms(c)
DAV:   1    -0.183300008441E+02   -0.32598E-02   -0.49363E-03   720   0.724E-01    0.468E-02
DAV:   2    -0.183300025874E+02   -0.17433E-05   -0.40864E-05   944   0.108E-01
     75 T=  2382. E= -.18022127E+02 F= -.18330003E+02 E0= -.18329422E+02  EK= 0.30788E+00 SP= 0.00E+00 SK= 0.00E+00
       N       E                     dE             d eps       ncg     rms          rms(c)
DAV:   1    -0.183331074216E+02   -0.31066E-02   -0.49816E-03   720   0.727E-01    0.472E-02
DAV:   2    -0.183331090917E+02   -0.16701E-05   -0.40395E-05   976   0.106E-01
     76 T=  2406. E= -.18022126E+02 F= -.18333109E+02 E0= -.18332565E+02  EK= 0.31098E+00 SP= 0.00E+00 SK= 0.00E+00
       N       E                     dE             d eps       ncg     rms          rms(c)
DAV:   1    -0.183360571497E+02   -0.29497E-02   -0.50179E-03   744   0.730E-01    0.471E-02
DAV:   2    -0.183360587770E+02   -0.16273E-05   -0.39525E-05   880   0.104E-01
     77 T=  2429. E= -.18022124E+02 F= -.18336059E+02 E0= -.18335552E+02  EK= 0.31394E+00 SP= 0.00E+00 SK= 0.00E+00
       N       E                     dE             d eps       ncg     rms          rms(c)
DAV:   1    -0.183388476230E+02   -0.27905E-02   -0.50647E-03   736   0.733E-01    0.474E-02
DAV:   2    -0.183388492920E+02   -0.16690E-05   -0.39881E-05   904   0.105E-01
     78 T=  2450. E= -.18022123E+02 F= -.18338849E+02 E0= -.18338381E+02  EK= 0.31673E+00 SP= 0.00E+00 SK= 0.00E+00
       N       E                     dE             d eps       ncg     rms          rms(c)
DAV:   1    -0.183414780905E+02   -0.26305E-02   -0.50984E-03   744   0.736E-01    0.474E-02
DAV:   2    -0.183414797685E+02   -0.16780E-05   -0.39697E-05   952   0.105E-01
     79 T=  2471. E= -.18022123E+02 F= -.18341480E+02 E0= -.18341049E+02  EK= 0.31936E+00 SP= 0.00E+00 SK= 0.00E+00
       N       E                     dE             d eps       ncg     rms          rms(c)
DAV:   1    -0.183439469543E+02   -0.24689E-02   -0.51296E-03   744   0.738E-01    0.478E-02
DAV:   2    -0.183439485699E+02   -0.16155E-05   -0.38885E-05   888   0.104E-01
     80 T=  2490. E= -.18022121E+02 F= -.18343949E+02 E0= -.18343556E+02  EK= 0.32183E+00 SP= 0.00E+00 SK= 0.00E+00
       N       E                     dE             d eps       ncg     rms          rms(c)
DAV:   1    -0.183462516942E+02   -0.23047E-02   -0.51609E-03   752   0.740E-01    0.476E-02
DAV:   2    -0.183462533856E+02   -0.16913E-05   -0.39099E-05   928   0.103E-01
     81 T=  2508. E= -.18022120E+02 F= -.18346253E+02 E0= -.18345898E+02  EK= 0.32413E+00 SP= 0.00E+00 SK= 0.00E+00
       N       E                     dE             d eps       ncg     rms          rms(c)
DAV:   1    -0.183483886173E+02   -0.21369E-02   -0.51914E-03   736   0.743E-01    0.480E-02
DAV:   2    -0.183483903477E+02   -0.17303E-05   -0.39545E-05   928   0.105E-01
     82 T=  2524. E= -.18022119E+02 F= -.18348390E+02 E0= -.18348072E+02  EK= 0.32627E+00 SP= 0.00E+00 SK= 0.00E+00
       N       E                     dE             d eps       ncg     rms          rms(c)
DAV:   1    -0.183503576882E+02   -0.19691E-02   -0.52130E-03   752   0.744E-01    0.479E-02
DAV:   2    -0.183503594097E+02   -0.17216E-05   -0.38973E-05   864   0.103E-01
     83 T=  2539. E= -.18022119E+02 F= -.18350359E+02 E0= -.18350077E+02  EK= 0.32824E+00 SP= 0.00E+00 SK= 0.00E+00
       N       E                     dE             d eps       ncg     rms          rms(c)
DAV:   1    -0.183521563798E+02   -0.17987E-02   -0.52436E-03   744   0.747E-01    0.482E-02
DAV:   2    -0.183521581281E+02   -0.17483E-05   -0.39124E-05   928   0.104E-01
     84 T=  2553. E= -.18022117E+02 F= -.18352158E+02 E0= -.18351911E+02  EK= 0.33004E+00 SP= 0.00E+00 SK= 0.00E+00
       N       E                     dE             d eps       ncg     rms          rms(c)
DAV:   1    -0.183537853252E+02   -0.16289E-02   -0.52557E-03   744   0.748E-01    0.480E-02
DAV:   2    -0.183537871577E+02   -0.18325E-05   -0.39357E-05   864   0.104E-01
     85 T=  2566. E= -.18022116E+02 F= -.18353787E+02 E0= -.18353575E+02  EK= 0.33167E+00 SP= 0.00E+00 SK= 0.00E+00
       N       E                     dE             d eps       ncg     rms          rms(c)
DAV:   1    -0.183552424032E+02   -0.14571E-02   -0.52807E-03   736   0.749E-01    0.483E-02
DAV:   2    -0.183552442812E+02   -0.18780E-05   -0.39627E-05   952   0.105E-01
     86 T=  2577. E= -.18022115E+02 F= -.18355244E+02 E0= -.18355066E+02  EK= 0.33313E+00 SP= 0.00E+00 SK= 0.00E+00
       N       E                     dE             d eps       ncg     rms          rms(c)
DAV:   1    -0.183565279624E+02   -0.12856E-02   -0.52869E-03   736   0.750E-01    0.483E-02
DAV:   2    -0.183565298555E+02   -0.18931E-05   -0.39205E-05   896   0.104E-01
     87 T=  2587. E= -.18022112E+02 F= -.18356530E+02 E0= -.18356384E+02  EK= 0.33442E+00 SP= 0.00E+00 SK= 0.00E+00
       N       E                     dE             d eps       ncg     rms          rms(c)
DAV:   1    -0.183576429919E+02   -0.11150E-02   -0.53056E-03   728   0.752E-01    0.485E-02
DAV:   2    -0.183576448864E+02   -0.18945E-05   -0.39087E-05   920   0.104E-01
     88 T=  2596. E= -.18022112E+02 F= -.18357645E+02 E0= -.18357530E+02  EK= 0.33553E+00 SP= 0.00E+00 SK= 0.00E+00
       N       E                     dE             d eps       ncg     rms          rms(c)
DAV:   1    -0.183585858050E+02   -0.94281E-03   -0.53112E-03   736   0.752E-01    0.483E-02
DAV:   2    -0.183585876998E+02   -0.18948E-05   -0.38519E-05   864   0.103E-01
     89 T=  2603. E= -.18022111E+02 F= -.18358588E+02 E0= -.18358502E+02  EK= 0.33648E+00 SP= 0.00E+00 SK= 0.00E+00
       N       E                     dE             d eps       ncg     rms          rms(c)
DAV:   1    -0.183593564527E+02   -0.77065E-03   -0.53258E-03   728   0.753E-01    0.485E-02
DAV:   2    -0.183593583641E+02   -0.19114E-05   -0.38539E-05   992   0.103E-01
     90 T=  2609. E= -.18022110E+02 F= -.18359358E+02 E0= -.18359301E+02  EK= 0.33725E+00 SP= 0.00E+00 SK= 0.00E+00
       N       E                     dE             d eps       ncg     rms          rms(c)
DAV:   1    -0.183599560313E+02   -0.59958E-03   -0.53168E-03   728   0.753E-01    0.483E-02
DAV:   2    -0.183599580139E+02   -0.19826E-05   -0.38647E-05   888   0.104E-01
     91 T=  2614. E= -.18022111E+02 F= -.18359958E+02 E0= -.18359928E+02  EK= 0.33785E+00 SP= 0.00E+00 SK= 0.00E+00
       N       E                     dE             d eps       ncg     rms          rms(c)
DAV:   1    -0.183603821390E+02   -0.42611E-03   -0.53263E-03   696   0.754E-01    0.484E-02
DAV:   2    -0.183603842997E+02   -0.21607E-05   -0.40091E-05   928   0.108E-01
     92 T=  2617. E= -.18022111E+02 F= -.18360384E+02 E0= -.18360380E+02  EK= 0.33827E+00 SP= 0.00E+00 SK= 0.00E+00
       N       E                     dE             d eps       ncg     rms          rms(c)
DAV:   1    -0.183606357888E+02   -0.25365E-03   -0.53255E-03   704   0.753E-01    0.486E-02
DAV:   2    -0.183606378504E+02   -0.20615E-05   -0.39027E-05   960   0.105E-01
     93 T=  2619. E= -.18022111E+02 F= -.18360638E+02 E0= -.18360658E+02  EK= 0.33853E+00 SP= 0.00E+00 SK= 0.00E+00
       N       E                     dE             d eps       ncg     rms          rms(c)
DAV:   1    -0.183607165605E+02   -0.80772E-04   -0.53202E-03   704   0.753E-01    0.486E-02
DAV:   2    -0.183607185947E+02   -0.20343E-05   -0.38492E-05   944   0.105E-01
     94 T=  2620. E= -.18022110E+02 F= -.18360719E+02 E0= -.18360761E+02  EK= 0.33861E+00 SP= 0.00E+00 SK= 0.00E+00
       N       E                     dE             d eps       ncg     rms          rms(c)
DAV:   1    -0.183606252980E+02    0.91262E-04   -0.53143E-03   696   0.753E-01    0.485E-02
DAV:   2    -0.183606273843E+02   -0.20863E-05   -0.38717E-05   944   0.105E-01
     95 T=  2619. E= -.18022110E+02 F= -.18360627E+02 E0= -.18360691E+02  EK= 0.33852E+00 SP= 0.00E+00 SK= 0.00E+00
       N       E                     dE             d eps       ncg     rms          rms(c)
DAV:   1    -0.183603644571E+02    0.26084E-03   -0.53090E-03   712   0.752E-01    0.486E-02
DAV:   2    -0.183603664445E+02   -0.19874E-05   -0.37642E-05   960   0.103E-01
     96 T=  2617. E= -.18022110E+02 F= -.18360366E+02 E0= -.18360450E+02  EK= 0.33826E+00 SP= 0.00E+00 SK= 0.00E+00
       N       E                     dE             d eps       ncg     rms          rms(c)
DAV:   1    -0.183599355489E+02    0.42891E-03   -0.52949E-03   688   0.751E-01    0.485E-02
DAV:   2    -0.183599376036E+02   -0.20548E-05   -0.37956E-05   960   0.104E-01
     97 T=  2614. E= -.18022108E+02 F= -.18359938E+02 E0= -.18360040E+02  EK= 0.33783E+00 SP= 0.00E+00 SK= 0.00E+00
       N       E                     dE             d eps       ncg     rms          rms(c)
DAV:   1    -0.183593415081E+02    0.59404E-03   -0.52849E-03   680   0.750E-01    0.487E-02
DAV:   2    -0.183593436078E+02   -0.20997E-05   -0.38344E-05  1016   0.105E-01
     98 T=  2609. E= -.18022109E+02 F= -.18359344E+02 E0= -.18359463E+02  EK= 0.33723E+00 SP= 0.00E+00 SK= 0.00E+00
       N       E                     dE             d eps       ncg     rms          rms(c)
DAV:   1    -0.183585823846E+02    0.75912E-03   -0.52647E-03   680   0.749E-01    0.487E-02
DAV:   2    -0.183585844417E+02   -0.20571E-05   -0.37782E-05   944   0.104E-01
     99 T=  2603. E= -.18022109E+02 F= -.18358584E+02 E0= -.18358720E+02  EK= 0.33648E+00 SP= 0.00E+00 SK= 0.00E+00
       N       E                     dE             d eps       ncg     rms          rms(c)
DAV:   1    -0.183576592492E+02    0.92314E-03   -0.52530E-03   672   0.748E-01    0.487E-02
DAV:   2    -0.183576613835E+02   -0.21343E-05   -0.38420E-05  1016   0.106E-01
    100 T=  2596. E= -.18022109E+02 F= -.18357661E+02 E0= -.18357811E+02  EK= 0.33555E+00 SP= 0.00E+00 SK= 0.00E+00
