 vasp.6.4.3 19Mar24 (build Jun 11 2024 09:57:22) complex                         
 executed on             LinuxGNU date 2024.07.24  21:16:34
 running    1 mpi-ranks, with    6 threads/rank, on    1 nodes
 distrk:  each k-point on    1 cores,    1 groups
 distr:  one band on NCORE=   1 cores,    1 groups


--------------------------------------------------------------------------------------------------------


 INCAR:
   ENMAX = 400
   LWAVE = F
   LCHARG = F
   LREAL = Auto
   IBRION = 0
   POTIM = 0.1
   TEBEG = 300
   NSW = 100

 POTCAR:    PAW_PBE C_s 06Sep2000                 
 -----------------------------------------------------------------------------
|                                                                             |
|           W    W    AA    RRRRR   N    N  II  N    N   GGGG   !!!           |
|           W    W   A  A   R    R  NN   N  II  NN   N  G    G  !!!           |
|           W    W  A    A  R    R  N N  N  II  N N  N  G       !!!           |
|           W WW W  AAAAAA  RRRRR   N  N N  II  N  N N  G  GGG   !            |
|           WW  WW  A    A  R   R   N   NN  II  N   NN  G    G                |
|           W    W  A    A  R    R  N    N  II  N    N   GGGG   !!!           |
|                                                                             |
|     ISYM>0 for a molecular dynamics simmulation is not recommended.         |
|                                                                             |
 -----------------------------------------------------------------------------

 POTCAR:    PAW_PBE C_s 06Sep2000                 
   SHA256 =  9a3c01a40653262e7b717cd20cb47bbe50ae4c537fe117e874a5caa4e6ed1e45 C_s/POTCAR            
   COPYR  = (c) Copyright 06Sep2000 Georg Kresse                                                    
   COPYR  = This file is part of the software VASP. Any use, copying, and all other rights are regul
   COPYR  = If you do not have a valid VASP license, you may not use, copy or distribute this file. 
   VRHFIN =C: s2p2                                                                                  
   LEXCH  = PE                                                                                      
   EATOM  =   147.1560 eV,   10.8157 Ry                                                             
                                                                                                    
   TITEL  = PAW_PBE C_s 06Sep2000                                                                   
   LULTRA =        F    use ultrasoft PP ?                                                          
   IUNSCR =        0    unscreen: 0-lin 1-nonlin 2-no                                               
   RPACOR =    0.000    partial core radius                                                         
   POMASS =   12.011; ZVAL   =    4.000    mass and valenz                                          
   RCORE  =    1.850    outmost cutoff radius                                                       
   RWIGS  =    1.890; RWIGS  =    1.000    wigner-seitz radius (au A)                               
   ENMAX  =  273.911; ENMIN  =  205.433 eV                                                          
   RCLOC  =    0.804    cutoff for local pot                                                        
   LCOR   =        T    correct aug charges                                                         
   LPAW   =        T    paw PP                                                                      
   EAUG   =  439.243                                                                                
   DEXC   =    0.000                                                                                
   RMAX   =    1.897    core radius for proj-oper                                                   
   RAUG   =    1.300    factor for augmentation sphere                                              
   RDEP   =    1.940    radius for radial grids                                                     
   RDEPT  =    1.573    core radius for aug-charge                                                  
                                                                                                    
   Atomic configuration                                                                             
    4 entries                                                                                       
     n  l   j            E        occ.                                                              
     1  0  0.50      -273.3789   2.0000                                                             
     2  0  0.50       -13.7508   2.0000                                                             
     2  1  0.50        -5.2854   2.0000                                                             
     3  2  1.50        -1.3606   0.0000                                                             
   Description                                                                                      
     l       E           TYP  RCUT    TYP  RCUT                                                     
     0    -13.7508457     23  1.500                                                                 
     0    -11.0934578     23  1.500                                                                 
     1     -5.2854381     23  1.850                                                                 
     1     -1.3099858     23  1.850                                                                 
  local pseudopotential read in
  atomic valenz-charges read in
  non local Contribution for L=           0  read in
    real space projection operators read in
  non local Contribution for L=           0  read in
    real space projection operators read in
  non local Contribution for L=           1  read in
    real space projection operators read in
  non local Contribution for L=           1  read in
    real space projection operators read in
    PAW grid and wavefunctions read in

   number of l-projection  operators is LMAX  =           4
   number of lm-projection operators is LMMAX =           8

 -----------------------------------------------------------------------------
|                                                                             |
|               ----> ADVICE to this user running VASP <----                  |
|                                                                             |
|     You have a (more or less) 'small supercell' and for smaller cells       |
|     it is recommended to use the reciprocal-space projection scheme!        |
|     The real-space optimization is not efficient for small cells and it     |
|     is also less accurate ...                                               |
|     Therefore, set LREAL=.FALSE. in the INCAR file.                         |
|                                                                             |
 -----------------------------------------------------------------------------

 Optimization of the real space projectors (new method)

 maximal supplied QI-value         = 20.41
 optimisation between [QCUT,QGAM] = [ 10.20, 20.41] = [ 29.16,116.64] Ry 
 Optimized for a Real-space Cutoff    1.26 Angstroem

   l    n(q)    QCUT    max X(q) W(low)/X(q) W(high)/X(q)  e(spline) 
   0      8    10.205   100.645    0.39E-03    0.15E-03    0.14E-06
   0      8    10.205    86.773    0.38E-03    0.14E-03    0.14E-06
   1      7    10.205   106.563    0.17E-03    0.72E-03    0.19E-06
   1      7    10.205    86.445    0.18E-03    0.73E-03    0.19E-06
  PAW_PBE C_s 06Sep2000                 :
 energy of atom  1       EATOM= -147.1560
 kinetic energy error for atom=    0.0046 (will be added to EATOM!!)


 POSCAR: graphene
  positions in direct lattice
  velocities in cartesian coordinates


 exchange-correlation table for PE
   RHO(1)=    0.500       N(1)  =     2000
   RHO(2)=  100.500       N(2)  =     4000



--------------------------------------------------------------------------------------------------------


 ion  position               nearest neighbor table
   1  0.100  0.100  0.500-   2 1.40   2 1.42   2 1.45
   2  0.422  0.766  0.520-   1 1.40   1 1.42   1 1.45

  LATTYP: Found a hexagonal cell.
 ALAT       =     2.4410462393
 C/A-ratio  =     4.0966040868
  
  Lattice vectors:
  
 A1 = (   2.4410462393,   0.0000000000,   0.0000000000)
 A2 = (  -1.2205231197,   2.1140080551,   0.0000000000)
 A3 = (   0.0000000000,   0.0000000000,  10.0000000000)


Analysis of symmetry for initial positions (statically):
=====================================================================
 Subroutine PRICEL returns:
 Original cell was already a primitive cell.
 

 Routine SETGRP: Setting up the symmetry group for a 
 hexagonal supercell.


 Subroutine GETGRP returns: Found  2 space group operations
 (whereof  1 operations were pure point group operations)
 out of a pool of 24 trial point group operations.


The static configuration has the point symmetry C_1 .
 The point group associated with its full space group is S_2 .


Analysis of symmetry for dynamics (positions and initial velocities):
=====================================================================
 Subroutine PRICEL returns:
 Original cell was already a primitive cell.
 

 Routine SETGRP: Setting up the symmetry group for a 
 hexagonal supercell.


 Subroutine GETGRP returns: Found  2 space group operations
 (whereof  1 operations were pure point group operations)
 out of a pool of 24 trial point group operations.


The dynamic configuration has the point symmetry C_1 .
 The point group associated with its full space group is S_2 .


 Subroutine INISYM returns: Found  2 space group operations
 (whereof  1 operations are pure point group operations),
 and found     1 'primitive' translations


----------------------------------------------------------------------------------------

                                     Primitive cell                                     

  volume of cell :      51.6039

  direct lattice vectors                    reciprocal lattice vectors
     2.441046239  0.000000000  0.000000000     0.409660409  0.236517547 -0.000000000
    -1.220523120  2.114008055  0.000000000     0.000000000  0.473035094  0.000000000
     0.000000000  0.000000000 10.000000000     0.000000000 -0.000000000  0.100000000

  length of vectors
     2.441046239  2.441046239 10.000000000     0.473035094  0.473035094  0.100000000

  position of ions in fractional coordinates (direct lattice)
     0.100000000  0.100000000  0.500000000
     0.422000000  0.766000000  0.520000000

  ion indices of the primitive-cell ions
   primitive index   ion index
                 1           1
                 2           2

----------------------------------------------------------------------------------------



 KPOINTS: K-Points                                

Automatic generation of k-mesh.
 Grid dimensions read from file:
 generate k-points for:    9    9    1

 Generating k-lattice:

  Cartesian coordinates                     Fractional coordinates (reciprocal lattice)
     0.045517823  0.026279727 -0.000000000     0.111111111  0.000000000  0.000000000
     0.000000000  0.052559455  0.000000000     0.000000000  0.111111111  0.000000000
     0.000000000 -0.000000000  0.100000000     0.000000000  0.000000000  1.000000000

  Length of vectors
     0.052559455  0.052559455  0.100000000

  Shift w.r.t. Gamma in fractional coordinates (k-lattice)
     0.000000000  0.000000000  0.000000000

 
 Subroutine IBZKPT returns following result:
 ===========================================
 
 Found     41 irreducible k-points:
 
 Following reciprocal coordinates:
            Coordinates               Weight
  0.000000  0.000000  0.000000      1.000000
  0.111111  0.000000  0.000000      2.000000
  0.000000  0.111111  0.000000      2.000000
 -0.111111  0.111111  0.000000      2.000000
  0.222222  0.000000  0.000000      2.000000
  0.000000  0.222222  0.000000      2.000000
 -0.222222  0.222222  0.000000      2.000000
  0.333333  0.000000  0.000000      2.000000
  0.000000  0.333333  0.000000      2.000000
 -0.333333  0.333333  0.000000      2.000000
  0.444444  0.000000  0.000000      2.000000
  0.000000  0.444444  0.000000      2.000000
 -0.444444  0.444444  0.000000      2.000000
  0.111111  0.111111  0.000000      2.000000
 -0.111111  0.222222  0.000000      2.000000
 -0.222222  0.111111  0.000000      2.000000
  0.222222  0.111111  0.000000      2.000000
 -0.111111  0.333333  0.000000      2.000000
 -0.333333  0.222222  0.000000      2.000000
 -0.222222  0.333333  0.000000      2.000000
  0.111111  0.222222  0.000000      2.000000
  0.333333 -0.111111  0.000000      2.000000
  0.333333  0.111111  0.000000      2.000000
 -0.111111  0.444444  0.000000      2.000000
 -0.444444  0.333333  0.000000      2.000000
 -0.333333  0.444444  0.000000      2.000000
  0.111111  0.333333  0.000000      2.000000
  0.444444 -0.111111  0.000000      2.000000
  0.444444  0.111111  0.000000      2.000000
 -0.111111 -0.444444  0.000000      2.000000
  0.444444  0.444444  0.000000      2.000000
  0.222222  0.222222  0.000000      2.000000
 -0.222222  0.444444  0.000000      2.000000
 -0.444444  0.222222  0.000000      2.000000
  0.333333  0.222222  0.000000      2.000000
 -0.222222 -0.444444  0.000000      2.000000
  0.444444  0.333333  0.000000      2.000000
 -0.333333 -0.444444  0.000000      2.000000
  0.222222  0.333333  0.000000      2.000000
 -0.444444 -0.222222  0.000000      2.000000
  0.333333  0.333333  0.000000      2.000000
 
 Following cartesian coordinates:
            Coordinates               Weight
  0.000000  0.000000  0.000000      1.000000
  0.045518  0.026280  0.000000      2.000000
  0.000000  0.052559  0.000000      2.000000
 -0.045518  0.026280  0.000000      2.000000
  0.091036  0.052559  0.000000      2.000000
  0.000000  0.105119  0.000000      2.000000
 -0.091036  0.052559  0.000000      2.000000
  0.136553  0.078839  0.000000      2.000000
  0.000000  0.157678  0.000000      2.000000
 -0.136553  0.078839  0.000000      2.000000
  0.182071  0.105119  0.000000      2.000000
  0.000000  0.210238  0.000000      2.000000
 -0.182071  0.105119  0.000000      2.000000
  0.045518  0.078839  0.000000      2.000000
 -0.045518  0.078839  0.000000      2.000000
 -0.091036 -0.000000  0.000000      2.000000
  0.091036  0.105119  0.000000      2.000000
 -0.045518  0.131399  0.000000      2.000000
 -0.136553  0.026280  0.000000      2.000000
 -0.091036  0.105119  0.000000      2.000000
  0.045518  0.131399  0.000000      2.000000
  0.136553  0.026280  0.000000      2.000000
  0.136553  0.131399  0.000000      2.000000
 -0.045518  0.183958  0.000000      2.000000
 -0.182071  0.052559  0.000000      2.000000
 -0.136553  0.131399  0.000000      2.000000
  0.045518  0.183958  0.000000      2.000000
  0.182071  0.052559  0.000000      2.000000
  0.182071  0.157678  0.000000      2.000000
 -0.045518 -0.236518  0.000000      2.000000
  0.182071  0.315357  0.000000      2.000000
  0.091036  0.157678  0.000000      2.000000
 -0.091036  0.157678  0.000000      2.000000
 -0.182071 -0.000000  0.000000      2.000000
  0.136553  0.183958  0.000000      2.000000
 -0.091036 -0.262797  0.000000      2.000000
  0.182071  0.262797  0.000000      2.000000
 -0.136553 -0.289077  0.000000      2.000000
  0.091036  0.210238  0.000000      2.000000
 -0.182071 -0.210238  0.000000      2.000000
  0.136553  0.236518  0.000000      2.000000
 


--------------------------------------------------------------------------------------------------------




 Dimension of arrays:
   k-points           NKPTS =     41   k-points in BZ     NKDIM =     41   number of bands    NBANDS=      8
   number of dos      NEDOS =    301   number of ions     NIONS =      2
   non local maximal  LDIM  =      4   non local SUM 2l+1 LMDIM =      8
   total plane-waves  NPLWV =   7200
   max r-space proj   IRMAX =   1228   max aug-charges    IRDMAX=   3128
   dimension x,y,z NGX =    12 NGY =   12 NGZ =   50
   dimension x,y,z NGXF=    24 NGYF=   24 NGZF=  100
   support grid    NGXF=    24 NGYF=   24 NGZF=  100
   ions per type =               2
   NGX,Y,Z   is equivalent  to a cutoff of   8.17,  8.17,  8.31 a.u.
   NGXF,Y,Z  is equivalent  to a cutoff of  16.35, 16.35, 16.62 a.u.

 SYSTEM =  unknown system                          
 POSCAR =  graphene                                

 Startparameter for this run:
   NWRITE =      2    write-flag & timer
   PREC   = normal    normal or accurate (medium, high low for compatibility)
   ISTART =      0    job   : 0-new  1-cont  2-samecut
   ICHARG =      2    charge: 1-file 2-atom 10-const
   ISPIN  =      1    spin polarized calculation?
   LNONCOLLINEAR =      F non collinear calculations
   LSORBIT =      F    spin-orbit coupling
   INIWAV =      1    electr: 0-lowe 1-rand  2-diag
   LASPH  =      F    aspherical Exc in radial PAW
 Electronic Relaxation 1
   ENCUT  =  400.0 eV  29.40 Ry    5.42 a.u.   3.98  3.98 16.31*2*pi/ulx,y,z
   ENINI  =  400.0     initial cutoff
   ENAUG  =  439.2 eV  augmentation charge cutoff
   NELM   =     60;   NELMIN=  2; NELMDL= -5     # of ELM steps 
   EDIFF  = 0.1E-03   stopping-criterion for ELM
   LREAL  =      T    real-space projection
   NLSPLINE    = F    spline interpolate recip. space projectors
   LCOMPAT=      F    compatible to vasp.4.4
   GGA_COMPAT  = T    GGA compatible to vasp.4.4-vasp.4.6
   LMAXPAW     = -100 max onsite density
   LMAXMIX     =    2 max onsite mixed and CHGCAR
   VOSKOWN=      0    Vosko Wilk Nusair interpolation
   ROPT   =   -0.00050
 Ionic relaxation
   EDIFFG = 0.1E-02   stopping-criterion for IOM
   NSW    =    100    number of steps for IOM
   NBLOCK =      1;   KBLOCK =    100    inner block; outer block 
   IBRION =      0    ionic relax: 0-MD 1-quasi-New 2-CG
   NFREE  =      0    steps in history (QN), initial steepest desc. (CG)
   ISIF   =      0    stress and relaxation
   IWAVPR =     12    prediction:  0-non 1-charg 2-wave 3-comb
   ISYM   =      2    0-nonsym 1-usesym 2-fastsym
   LCORR  =      T    Harris-Foulkes like correction to forces

   POTIM  = 0.1000    time-step for ionic-motion
   TEIN   =    0.0    initial temperature
   TEBEG  =  300.0;   TEEND  = 300.0 temperature during run
   SMASS  =  -3.00    Nose mass-parameter (am)
   estimated Nose-frequenzy (Omega)   =  0.10E-29 period in steps = 0.63E+47 mass=  -0.136E-27a.u.
   SCALEE = 1.0000    scale energy and forces
   NPACO  =    256;   APACO  = 10.0  distance and # of slots for P.C.
   PSTRESS=    0.0 pullay stress

  Mass of Ions in am
   POMASS =  12.01
  Ionic Valenz
   ZVAL   =   4.00
  Atomic Wigner-Seitz radii
   RWIGS  =  -1.00
  virtual crystal weights 
   VCA    =   1.00
   NELECT =       8.0000    total number of electrons
   NUPDOWN=      -1.0000    fix difference up-down

 DOS related values:
   EMIN   =  10.00;   EMAX   =-10.00  energy-range for DOS
   EFERMI =   0.00;   METHOD = LEGACY      
   ISMEAR =     1;   SIGMA  =   0.20  broadening in eV -4-tet -1-fermi 0-gaus

 Electronic relaxation 2 (details)
   IALGO  =     38    algorithm
   LDIAG  =      T    sub-space diagonalisation (order eigenvalues)
   LSUBROT=      F    optimize rotation matrix (better conditioning)
   TURBO    =      0    0=normal 1=particle mesh
   IRESTART =      0    0=no restart 2=restart with 2 vectors
   NREBOOT  =      0    no. of reboots
   NMIN     =      0    reboot dimension
   EREF     =   0.00    reference energy to select bands
   IMIX   =      4    mixing-type and parameters
     AMIX     =   0.40;   BMIX     =  1.00
     AMIX_MAG =   1.60;   BMIX_MAG =  1.00
     AMIN     =   0.10
     WC   =   100.;   INIMIX=   1;  MIXPRE=   1;  MAXMIX= -45

 Intra band minimization:
   WEIMIN = 0.0010     energy-eigenvalue tresh-hold
   EBREAK =  0.31E-05  absolut break condition
   DEPER  =   0.30     relativ break condition  

   TIME   =   0.40     timestep for ELM

  volume/ion in A,a.u.               =      25.80       174.12
  Fermi-wavevector in a.u.,A,eV,Ry     =   0.879449  1.661917 10.523159  0.773430
  Thomas-Fermi vector in A             =   1.999674

 Write flags
   LWAVE        =      F    write WAVECAR
   LDOWNSAMPLE  =      F    k-point downsampling of WAVECAR
   LCHARG       =      F    write CHGCAR
   LVTOT        =      F    write LOCPOT, total local potential
   LVHAR        =      F    write LOCPOT, Hartree potential only
   WRT_POTENTIAL= false  ! write potential to hdf5 file
   LELF         =      F    write electronic localiz. function (ELF)
   LORBIT       =      0    0 simple, 1 ext, 2 COOP (PROOUT), +10 PAW based schemes


 Dipole corrections
   LMONO      =      F    monopole corrections only (constant potential shift)
   LDIPOL     =      F    correct potential (dipole corrections)
   IDIPOL     =      0    1-x, 2-y, 3-z, 4-all directions 
   EPSILON    =  1.0000000 bulk dielectric constant
   LVACPOTAV  =      F  vacuum potentials using an averaging scheme for the charge density
   VACPOTFLAT =  0.1000000 required flatness to determine vacuum potential
 Exchange correlation treatment:
   GGA     = PE    functional components
   XC_C    = 1    coefficients multiplying the functional components
   LIBXC   =     F    Libxc                    
   VOSKOWN =     0    Vosko Wilk Nusair interpolation
   LHFCALC =     F    Hartree Fock is set to
   LHFONE  =     F    Hartree Fock one center treatment
   AEXX    =    0.0000 exact exchange contribution

 Parameters of functionals:
   PE:
     No parameter

 Van der Waals corrections
   IVDW    =     0    specifies the selected vdW correction

 Linear response parameters
   LEPSILON=     F    determine dielectric tensor
   LRPA    =     F    only Hartree local field effects (RPA)
   LNABLA  =     F    use nabla operator in PAW spheres
   LVEL    =     F    velocity operator in full k-point grid
   CSHIFT  =0.1000    complex shift for real part using Kramers Kronig
   OMEGAMAX=  -1.0    maximum frequency
   DEG_THRESHOLD= 0.2000000E-02 threshold for treating states as degnerate
   RTIME   =   -0.100 relaxation time in fs
  (WPLASMAI=    0.000 imaginary part of plasma frequency in eV, 0.658/RTIME)
   DFIELD  = 0.0000000 0.0000000 0.0000000 field for delta impulse in time

  Optional k-point grid parameters
   LKPOINTS_OPT  =     F    use optional k-point grid
   KPOINTS_OPT_MODE=     1    mode for optional k-point grid

 Orbital magnetization related:
   ORBITALMAG=     F  switch on orbital magnetization
   LCHIMAG   =     F  perturbation theory with respect to B field
   DQ        =  0.001000  dq finite difference perturbation B field
   LLRAUG    =     F  two centre corrections for induced B field
   LBONE     =     F  B-component reconstruction in AE one-centre
   LVGVCALC  =     T  calculate vGv susceptibility
   LVGVAPPL  =     F  apply vGv susceptibility instead of pGv for G=0

 Random number generation:
   RANDOM_GENERATOR = DEFAULT
   PCG_SEED         = not used


--------------------------------------------------------------------------------------------------------


 molecular dynamics for ions
   using a microcanonical ensemble
 charge density and potential will be updated during run
 non-spin polarized calculation
 Variant of blocked Davidson
 Davidson routine will perform the subspace rotation
 perform sub-space diagonalisation
    after iterative eigenvector-optimisation
 modified Broyden-mixing scheme, WC =      100.0
 initial mixing is a Kerker type mixing with AMIX =  0.4000 and BMIX =      1.0000
 Hartree-type preconditioning will be used
 using additional bands            4
 real space projection scheme for non local part
 calculate Harris-corrections to forces   (improved forces if not selfconsistent)
 use gradient corrections 
 use of overlap-Matrix (Vanderbilt PP)
 Methfessel and Paxton  Order N= 1 SIGMA  =   0.20


--------------------------------------------------------------------------------------------------------


  energy-cutoff  :      400.00
  volume of cell :       51.60
      direct lattice vectors                 reciprocal lattice vectors
     2.441046239  0.000000000  0.000000000     0.409660409  0.236517547 -0.000000000
    -1.220523120  2.114008055  0.000000000     0.000000000  0.473035094  0.000000000
     0.000000000  0.000000000 10.000000000     0.000000000 -0.000000000  0.100000000

  length of vectors
     2.441046239  2.441046239 10.000000000     0.473035094  0.473035094  0.100000000



 k-points in units of 2pi/SCALE and weight: K-Points                                
   0.00000000  0.00000000  0.00000000       0.012
   0.04551782  0.02627973  0.00000000       0.025
   0.00000000  0.05255945  0.00000000       0.025
  -0.04551782  0.02627973  0.00000000       0.025
   0.09103565  0.05255945  0.00000000       0.025
   0.00000000  0.10511891  0.00000000       0.025
  -0.09103565  0.05255945  0.00000000       0.025
   0.13655347  0.07883918  0.00000000       0.025
   0.00000000  0.15767836  0.00000000       0.025
  -0.13655347  0.07883918  0.00000000       0.025
   0.18207129  0.10511891  0.00000000       0.025
   0.00000000  0.21023782  0.00000000       0.025
  -0.18207129  0.10511891  0.00000000       0.025
   0.04551782  0.07883918  0.00000000       0.025
  -0.04551782  0.07883918  0.00000000       0.025
  -0.09103565 -0.00000000  0.00000000       0.025
   0.09103565  0.10511891  0.00000000       0.025
  -0.04551782  0.13139864  0.00000000       0.025
  -0.13655347  0.02627973  0.00000000       0.025
  -0.09103565  0.10511891  0.00000000       0.025
   0.04551782  0.13139864  0.00000000       0.025
   0.13655347  0.02627973  0.00000000       0.025
   0.13655347  0.13139864  0.00000000       0.025
  -0.04551782  0.18395809  0.00000000       0.025
  -0.18207129  0.05255945  0.00000000       0.025
  -0.13655347  0.13139864  0.00000000       0.025
   0.04551782  0.18395809  0.00000000       0.025
   0.18207129  0.05255945  0.00000000       0.025
   0.18207129  0.15767836  0.00000000       0.025
  -0.04551782 -0.23651755  0.00000000       0.025
   0.18207129  0.31535673  0.00000000       0.025
   0.09103565  0.15767836  0.00000000       0.025
  -0.09103565  0.15767836  0.00000000       0.025
  -0.18207129 -0.00000000  0.00000000       0.025
   0.13655347  0.18395809  0.00000000       0.025
  -0.09103565 -0.26279727  0.00000000       0.025
   0.18207129  0.26279727  0.00000000       0.025
  -0.13655347 -0.28907700  0.00000000       0.025
   0.09103565  0.21023782  0.00000000       0.025
  -0.18207129 -0.21023782  0.00000000       0.025
   0.13655347  0.23651755  0.00000000       0.025

 k-points in reciprocal lattice and weights: K-Points                                
   0.00000000  0.00000000  0.00000000       0.012
   0.11111111  0.00000000  0.00000000       0.025
   0.00000000  0.11111111  0.00000000       0.025
  -0.11111111  0.11111111  0.00000000       0.025
   0.22222222  0.00000000  0.00000000       0.025
   0.00000000  0.22222222  0.00000000       0.025
  -0.22222222  0.22222222  0.00000000       0.025
   0.33333333  0.00000000  0.00000000       0.025
   0.00000000  0.33333333  0.00000000       0.025
  -0.33333333  0.33333333  0.00000000       0.025
   0.44444444  0.00000000  0.00000000       0.025
   0.00000000  0.44444444  0.00000000       0.025
  -0.44444444  0.44444444  0.00000000       0.025
   0.11111111  0.11111111  0.00000000       0.025
  -0.11111111  0.22222222  0.00000000       0.025
  -0.22222222  0.11111111  0.00000000       0.025
   0.22222222  0.11111111  0.00000000       0.025
  -0.11111111  0.33333333  0.00000000       0.025
  -0.33333333  0.22222222  0.00000000       0.025
  -0.22222222  0.33333333  0.00000000       0.025
   0.11111111  0.22222222  0.00000000       0.025
   0.33333333 -0.11111111  0.00000000       0.025
   0.33333333  0.11111111  0.00000000       0.025
  -0.11111111  0.44444444  0.00000000       0.025
  -0.44444444  0.33333333  0.00000000       0.025
  -0.33333333  0.44444444  0.00000000       0.025
   0.11111111  0.33333333  0.00000000       0.025
   0.44444444 -0.11111111  0.00000000       0.025
   0.44444444  0.11111111  0.00000000       0.025
  -0.11111111 -0.44444444  0.00000000       0.025
   0.44444444  0.44444444  0.00000000       0.025
   0.22222222  0.22222222  0.00000000       0.025
  -0.22222222  0.44444444  0.00000000       0.025
  -0.44444444  0.22222222  0.00000000       0.025
   0.33333333  0.22222222  0.00000000       0.025
  -0.22222222 -0.44444444  0.00000000       0.025
   0.44444444  0.33333333  0.00000000       0.025
  -0.33333333 -0.44444444  0.00000000       0.025
   0.22222222  0.33333333  0.00000000       0.025
  -0.44444444 -0.22222222  0.00000000       0.025
   0.33333333  0.33333333  0.00000000       0.025

 position of ions in fractional coordinates (direct lattice) 
   0.10000000  0.10000000  0.50000000
   0.42200000  0.76600000  0.52000000

 position of ions in cartesian coordinates  (Angst):
   0.12205231  0.21140081  5.00000000
   0.09520080  1.61933017  5.20000000



--------------------------------------------------------------------------------------------------------


 k-point     1 :   0.0000 0.0000 0.0000  plane waves:     909
 k-point     2 :   0.1111 0.0000 0.0000  plane waves:     907
 k-point     3 :   0.0000 0.1111 0.0000  plane waves:     907
 k-point     4 :  -0.1111 0.1111 0.0000  plane waves:     907
 k-point     5 :   0.2222 0.0000 0.0000  plane waves:     919
 k-point     6 :   0.0000 0.2222 0.0000  plane waves:     919
 k-point     7 :  -0.2222 0.2222 0.0000  plane waves:     919
 k-point     8 :   0.3333 0.0000 0.0000  plane waves:     943
 k-point     9 :   0.0000 0.3333 0.0000  plane waves:     943
 k-point    10 :  -0.3333 0.3333 0.0000  plane waves:     943
 k-point    11 :   0.4444 0.0000 0.0000  plane waves:     937
 k-point    12 :   0.0000 0.4444 0.0000  plane waves:     937
 k-point    13 :  -0.4444 0.4444 0.0000  plane waves:     937
 k-point    14 :   0.1111 0.1111 0.0000  plane waves:     926
 k-point    15 :  -0.1111 0.2222 0.0000  plane waves:     926
 k-point    16 :  -0.2222 0.1111 0.0000  plane waves:     926
 k-point    17 :   0.2222 0.1111 0.0000  plane waves:     940
 k-point    18 :  -0.1111 0.3333 0.0000  plane waves:     940
 k-point    19 :  -0.3333 0.2222 0.0000  plane waves:     940
 k-point    20 :  -0.2222 0.3333 0.0000  plane waves:     940
 k-point    21 :   0.1111 0.2222 0.0000  plane waves:     940
 k-point    22 :   0.3333-0.1111 0.0000  plane waves:     940
 k-point    23 :   0.3333 0.1111 0.0000  plane waves:     949
 k-point    24 :  -0.1111 0.4444 0.0000  plane waves:     949
 k-point    25 :  -0.4444 0.3333 0.0000  plane waves:     949
 k-point    26 :  -0.3333 0.4444 0.0000  plane waves:     949
 k-point    27 :   0.1111 0.3333 0.0000  plane waves:     949
 k-point    28 :   0.4444-0.1111 0.0000  plane waves:     949
 k-point    29 :   0.4444 0.1111 0.0000  plane waves:     954
 k-point    30 :  -0.1111-0.4444 0.0000  plane waves:     954
 k-point    31 :   0.4444 0.4444 0.0000  plane waves:     954
 k-point    32 :   0.2222 0.2222 0.0000  plane waves:     948
 k-point    33 :  -0.2222 0.4444 0.0000  plane waves:     948
 k-point    34 :  -0.4444 0.2222 0.0000  plane waves:     948
 k-point    35 :   0.3333 0.2222 0.0000  plane waves:     943
 k-point    36 :  -0.2222-0.4444 0.0000  plane waves:     943
 k-point    37 :   0.4444 0.3333 0.0000  plane waves:     943
 k-point    38 :  -0.3333-0.4444 0.0000  plane waves:     943
 k-point    39 :   0.2222 0.3333 0.0000  plane waves:     943
 k-point    40 :  -0.4444-0.2222 0.0000  plane waves:     943
 k-point    41 :   0.3333 0.3333 0.0000  plane waves:     936

 maximum and minimum number of plane-waves per node :       954      907

 maximum number of plane-waves:       954
 maximum index in each direction: 
   IXMAX=    4   IYMAX=    4   IZMAX=   16
   IXMIN=   -4   IYMIN=   -4   IZMIN=  -16


 serial   3D FFT for wavefunctions
 parallel 3D FFT for charge:
    minimum data exchange during FFTs selected (reduces bandwidth)


 total amount of memory used by VASP MPI-rank0    40408. kBytes
=======================================================================

   base      :      30000. kBytes
   nonlr-proj:        221. kBytes
   fftplans  :       2000. kBytes
   grid      :       3091. kBytes
   one-center:          6. kBytes
   wavefun   :       5090. kBytes

     INWAV:  cpu time      0.0000: real time      0.0000
 Broyden mixing: mesh for mixing (old mesh)
   NGX =  7   NGY =  7   NGZ = 33
  (NGX  = 24   NGY  = 24   NGZ  =100)
  gives a total of   1617 points

 initial charge density was supplied:
 charge density of overlapping atoms calculated
 number of electron       8.0000000 magnetization 
 keeping initial charge density in first step


--------------------------------------------------------------------------------------------------------


 Maximum index for non-local projection operator          214
 Maximum index for augmentation-charges         2856 (set IRDMAX)


--------------------------------------------------------------------------------------------------------


 First call to EWALD:  gamma=   0.476
 Maximum number of real-space cells 4x 4x 1
 Maximum number of reciprocal cells 2x 2x 7

    FEWALD:  cpu time      0.0099: real time      0.0011


--------------------------------------- Ionic step        1  -------------------------------------------




--------------------------------------- Iteration      1(   1)  ---------------------------------------


    POTLOK:  cpu time      0.0961: real time      0.0161
    SETDIJ:  cpu time      0.0035: real time      0.0015
     EDDAV:  cpu time      7.4608: real time      1.2440
       DOS:  cpu time      0.0006: real time      0.0006
    --------------------------------------------
      LOOP:  cpu time      7.5610: real time      1.2622

 eigenvalue-minimisations  :   664
 total energy-change (2. order) : 0.5146456E+02  (-0.3381171E+03)
 number of electron       8.0000000 magnetization 
 augmentation part        8.0000000 magnetization 

 Free energy of the ion-electron system (eV)
  ---------------------------------------------------
  alpha Z        PSCENC =         3.71250722
  Ewald energy   TEWEN  =       385.77181787
  -Hartree energ DENC   =      -618.25331349
  -exchange      EXHF   =         0.00000000
  -V(xc)+E(xc)   XCENC  =        27.64530584
  PAW double counting   =       216.69781520     -218.18290364
  entropy T*S    EENTRO =        -0.00187620
  eigenvalues    EBANDS =       -40.22763254
  atomic energy  EATOM  =       294.30283995
  Solvation  Ediel_sol  =         0.00000000
  ---------------------------------------------------
  free energy    TOTEN  =        51.46456021 eV

  energy without entropy =       51.46643641  energy(sigma->0) =       51.46518561


--------------------------------------------------------------------------------------------------------




--------------------------------------- Iteration      1(   2)  ---------------------------------------


     EDDAV:  cpu time      8.9723: real time      1.4934
       DOS:  cpu time      0.0005: real time      0.0005
    --------------------------------------------
      LOOP:  cpu time      8.9729: real time      1.4940

 eigenvalue-minimisations  :   816
 total energy-change (2. order) :-0.6819719E+02  (-0.6132396E+02)
 number of electron       8.0000000 magnetization 
 augmentation part        8.0000000 magnetization 

 Free energy of the ion-electron system (eV)
  ---------------------------------------------------
  alpha Z        PSCENC =         3.71250722
  Ewald energy   TEWEN  =       385.77181787
  -Hartree energ DENC   =      -618.25331349
  -exchange      EXHF   =         0.00000000
  -V(xc)+E(xc)   XCENC  =        27.64530584
  PAW double counting   =       216.69781520     -218.18290364
  entropy T*S    EENTRO =         0.00040206
  eigenvalues    EBANDS =      -108.42710121
  atomic energy  EATOM  =       294.30283995
  Solvation  Ediel_sol  =         0.00000000
  ---------------------------------------------------
  free energy    TOTEN  =       -16.73263020 eV

  energy without entropy =      -16.73303226  energy(sigma->0) =      -16.73276422


--------------------------------------------------------------------------------------------------------




--------------------------------------- Iteration      1(   3)  ---------------------------------------


     EDDAV:  cpu time     11.2823: real time      1.8833
       DOS:  cpu time      0.0185: real time      0.0006
    --------------------------------------------
      LOOP:  cpu time     11.3008: real time      1.8838

 eigenvalue-minimisations  :  1040
 total energy-change (2. order) :-0.2613177E+01  (-0.2613397E+01)
 number of electron       8.0000000 magnetization 
 augmentation part        8.0000000 magnetization 

 Free energy of the ion-electron system (eV)
  ---------------------------------------------------
  alpha Z        PSCENC =         3.71250722
  Ewald energy   TEWEN  =       385.77181787
  -Hartree energ DENC   =      -618.25331349
  -exchange      EXHF   =         0.00000000
  -V(xc)+E(xc)   XCENC  =        27.64530584
  PAW double counting   =       216.69781520     -218.18290364
  entropy T*S    EENTRO =         0.00085636
  eigenvalues    EBANDS =      -111.04073238
  atomic energy  EATOM  =       294.30283995
  Solvation  Ediel_sol  =         0.00000000
  ---------------------------------------------------
  free energy    TOTEN  =       -19.34580706 eV

  energy without entropy =      -19.34666343  energy(sigma->0) =      -19.34609252


--------------------------------------------------------------------------------------------------------




--------------------------------------- Iteration      1(   4)  ---------------------------------------


     EDDAV:  cpu time     10.4146: real time      1.7358
       DOS:  cpu time      0.0006: real time      0.0006
    --------------------------------------------
      LOOP:  cpu time     10.4152: real time      1.7364

 eigenvalue-minimisations  :   952
 total energy-change (2. order) :-0.1795580E-01  (-0.1795580E-01)
 number of electron       8.0000000 magnetization 
 augmentation part        8.0000000 magnetization 

 Free energy of the ion-electron system (eV)
  ---------------------------------------------------
  alpha Z        PSCENC =         3.71250722
  Ewald energy   TEWEN  =       385.77181787
  -Hartree energ DENC   =      -618.25331349
  -exchange      EXHF   =         0.00000000
  -V(xc)+E(xc)   XCENC  =        27.64530584
  PAW double counting   =       216.69781520     -218.18290364
  entropy T*S    EENTRO =         0.00085548
  eigenvalues    EBANDS =      -111.05868730
  atomic energy  EATOM  =       294.30283995
  Solvation  Ediel_sol  =         0.00000000
  ---------------------------------------------------
  free energy    TOTEN  =       -19.36376287 eV

  energy without entropy =      -19.36461834  energy(sigma->0) =      -19.36404802


--------------------------------------------------------------------------------------------------------




--------------------------------------- Iteration      1(   5)  ---------------------------------------


     EDDAV:  cpu time     11.0187: real time      1.8382
       DOS:  cpu time      0.0006: real time      0.0006
    CHARGE:  cpu time      0.4052: real time      0.0679
    MIXING:  cpu time      0.0207: real time      0.0007
    --------------------------------------------
      LOOP:  cpu time     11.4452: real time      1.9074

 eigenvalue-minimisations  :  1016
 total energy-change (2. order) :-0.2877322E-04  (-0.2877285E-04)
 number of electron       8.0000003 magnetization 
 augmentation part        0.4001045 magnetization 

 Broyden mixing:
  rms(total) = 0.17887E+01    rms(broyden)= 0.17886E+01
  rms(prec ) = 0.18508E+01
  weight for this iteration     100.00

 Free energy of the ion-electron system (eV)
  ---------------------------------------------------
  alpha Z        PSCENC =         3.71250722
  Ewald energy   TEWEN  =       385.77181787
  -Hartree energ DENC   =      -618.25331349
  -exchange      EXHF   =         0.00000000
  -V(xc)+E(xc)   XCENC  =        27.64530584
  PAW double counting   =       216.69781520     -218.18290364
  entropy T*S    EENTRO =         0.00085548
  eigenvalues    EBANDS =      -111.05871607
  atomic energy  EATOM  =       294.30283995
  Solvation  Ediel_sol  =         0.00000000
  ---------------------------------------------------
  free energy    TOTEN  =       -19.36379164 eV

  energy without entropy =      -19.36464712  energy(sigma->0) =      -19.36407680


--------------------------------------------------------------------------------------------------------




--------------------------------------- Iteration      1(   6)  ---------------------------------------


    POTLOK:  cpu time      0.0755: real time      0.0155
    SETDIJ:  cpu time      0.0213: real time      0.0015
     EDDAV:  cpu time     11.9774: real time      1.9971
       DOS:  cpu time      0.0006: real time      0.0006
    CHARGE:  cpu time      0.4070: real time      0.0689
    MIXING:  cpu time      0.0207: real time      0.0007
    --------------------------------------------
      LOOP:  cpu time     12.5025: real time      2.0843

 eigenvalue-minimisations  :  1120
 total energy-change (2. order) : 0.9525642E+00  (-0.9086713E-01)
 number of electron       8.0000003 magnetization 
 augmentation part        0.3678370 magnetization 

 Broyden mixing:
  rms(total) = 0.12712E+01    rms(broyden)= 0.12712E+01
  rms(prec ) = 0.12972E+01
  weight for this iteration     100.00

 eigenvalues of (default mixing * dielectric matrix)
  average eigenvalue GAMMA=   3.2633
  3.2633

 Free energy of the ion-electron system (eV)
  ---------------------------------------------------
  alpha Z        PSCENC =         3.71250722
  Ewald energy   TEWEN  =       385.77181787
  -Hartree energ DENC   =      -628.85026797
  -exchange      EXHF   =         0.00000000
  -V(xc)+E(xc)   XCENC  =        28.13161689
  PAW double counting   =       818.12786193     -819.85290020
  entropy T*S    EENTRO =         0.00068042
  eigenvalues    EBANDS =       -99.75538359
  atomic energy  EATOM  =       294.30283995
  Solvation  Ediel_sol  =         0.00000000
  ---------------------------------------------------
  free energy    TOTEN  =       -18.41122747 eV

  energy without entropy =      -18.41190789  energy(sigma->0) =      -18.41145428


--------------------------------------------------------------------------------------------------------




--------------------------------------- Iteration      1(   7)  ---------------------------------------


    POTLOK:  cpu time      0.0955: real time      0.0155
    SETDIJ:  cpu time      0.0014: real time      0.0014
     EDDAV:  cpu time     12.7659: real time      2.1273
       DOS:  cpu time      0.0006: real time      0.0006
    CHARGE:  cpu time      0.4305: real time      0.0710
    MIXING:  cpu time      0.0007: real time      0.0007
    --------------------------------------------
      LOOP:  cpu time     13.2947: real time      2.2166

 eigenvalue-minimisations  :  1192
 total energy-change (2. order) : 0.3186248E+00  (-0.2344880E+00)
 number of electron       8.0000003 magnetization 
 augmentation part        0.3208794 magnetization 

 Broyden mixing:
  rms(total) = 0.16364E+00    rms(broyden)= 0.16362E+00
  rms(prec ) = 0.20478E+00
  weight for this iteration     100.00

 eigenvalues of (default mixing * dielectric matrix)
  average eigenvalue GAMMA=   2.2200
  2.2200  2.2200

 Free energy of the ion-electron system (eV)
  ---------------------------------------------------
  alpha Z        PSCENC =         3.71250722
  Ewald energy   TEWEN  =       385.77181787
  -Hartree energ DENC   =      -648.89159045
  -exchange      EXHF   =         0.00000000
  -V(xc)+E(xc)   XCENC  =        29.05526855
  PAW double counting   =      3544.08281195    -3546.29753093
  entropy T*S    EENTRO =         0.00036542
  eigenvalues    EBANDS =       -79.82909226
  atomic energy  EATOM  =       294.30283995
  Solvation  Ediel_sol  =         0.00000000
  ---------------------------------------------------
  free energy    TOTEN  =       -18.09260268 eV

  energy without entropy =      -18.09296810  energy(sigma->0) =      -18.09272449


--------------------------------------------------------------------------------------------------------




--------------------------------------- Iteration      1(   8)  ---------------------------------------


    POTLOK:  cpu time      0.0957: real time      0.0157
    SETDIJ:  cpu time      0.0012: real time      0.0012
     EDDAV:  cpu time      9.5069: real time      1.5858
       DOS:  cpu time      0.0184: real time      0.0006
    CHARGE:  cpu time      0.4101: real time      0.0702
    MIXING:  cpu time      0.0008: real time      0.0008
    --------------------------------------------
      LOOP:  cpu time     10.0330: real time      1.6744

 eigenvalue-minimisations  :   872
 total energy-change (2. order) : 0.6710394E-01  (-0.2555077E-01)
 number of electron       8.0000003 magnetization 
 augmentation part        0.3364228 magnetization 

 Broyden mixing:
  rms(total) = 0.25402E-01    rms(broyden)= 0.25399E-01
  rms(prec ) = 0.43935E-01
  weight for this iteration     100.00

 eigenvalues of (default mixing * dielectric matrix)
  average eigenvalue GAMMA=   1.7727
  2.2862  2.2129  0.8189

 Free energy of the ion-electron system (eV)
  ---------------------------------------------------
  alpha Z        PSCENC =         3.71250722
  Ewald energy   TEWEN  =       385.77181787
  -Hartree energ DENC   =      -644.45679476
  -exchange      EXHF   =         0.00000000
  -V(xc)+E(xc)   XCENC  =        28.76713830
  PAW double counting   =      3184.15847277    -3186.22720455
  entropy T*S    EENTRO =         0.00050152
  eigenvalues    EBANDS =       -84.05477707
  atomic energy  EATOM  =       294.30283995
  Solvation  Ediel_sol  =         0.00000000
  ---------------------------------------------------
  free energy    TOTEN  =       -18.02549874 eV

  energy without entropy =      -18.02600026  energy(sigma->0) =      -18.02566591


--------------------------------------------------------------------------------------------------------




--------------------------------------- Iteration      1(   9)  ---------------------------------------


    POTLOK:  cpu time      0.0956: real time      0.0156
    SETDIJ:  cpu time      0.0214: real time      0.0014
     EDDAV:  cpu time     10.1183: real time      1.6877
       DOS:  cpu time      0.0006: real time      0.0006
    CHARGE:  cpu time      0.4118: real time      0.0707
    MIXING:  cpu time      0.0194: real time      0.0008
    --------------------------------------------
      LOOP:  cpu time     10.6672: real time      1.7768

 eigenvalue-minimisations  :   928
 total energy-change (2. order) : 0.1872434E-02  (-0.3222361E-03)
 number of electron       8.0000003 magnetization 
 augmentation part        0.3362856 magnetization 

 Broyden mixing:
  rms(total) = 0.10994E-01    rms(broyden)= 0.10993E-01
  rms(prec ) = 0.32544E-01
  weight for this iteration     100.00

 eigenvalues of (default mixing * dielectric matrix)
  average eigenvalue GAMMA=   1.5535
  2.3072  2.1561  0.8754  0.8754

 Free energy of the ion-electron system (eV)
  ---------------------------------------------------
  alpha Z        PSCENC =         3.71250722
  Ewald energy   TEWEN  =       385.77181787
  -Hartree energ DENC   =      -645.24560995
  -exchange      EXHF   =         0.00000000
  -V(xc)+E(xc)   XCENC  =        28.78398088
  PAW double counting   =      3226.69649786    -3228.76903501
  entropy T*S    EENTRO =         0.00049645
  eigenvalues    EBANDS =       -83.27712159
  atomic energy  EATOM  =       294.30283995
  Solvation  Ediel_sol  =         0.00000000
  ---------------------------------------------------
  free energy    TOTEN  =       -18.02362631 eV

  energy without entropy =      -18.02412275  energy(sigma->0) =      -18.02379179


--------------------------------------------------------------------------------------------------------




--------------------------------------- Iteration      1(  10)  ---------------------------------------


    POTLOK:  cpu time      0.0958: real time      0.0158
    SETDIJ:  cpu time      0.0015: real time      0.0015
     EDDAV:  cpu time      9.8097: real time      1.6367
       DOS:  cpu time      0.0006: real time      0.0006
    CHARGE:  cpu time      0.4309: real time      0.0706
    MIXING:  cpu time      0.0008: real time      0.0008
    --------------------------------------------
      LOOP:  cpu time     10.3393: real time      1.7260

 eigenvalue-minimisations  :   896
 total energy-change (2. order) : 0.1632961E-02  (-0.6905929E-04)
 number of electron       8.0000003 magnetization 
 augmentation part        0.3358112 magnetization 

 Broyden mixing:
  rms(total) = 0.69360E-02    rms(broyden)= 0.69358E-02
  rms(prec ) = 0.25551E-01
  weight for this iteration     100.00

 eigenvalues of (default mixing * dielectric matrix)
  average eigenvalue GAMMA=   1.9636
  3.5096  2.4929  1.9386  0.9385  0.9385

 Free energy of the ion-electron system (eV)
  ---------------------------------------------------
  alpha Z        PSCENC =         3.71250722
  Ewald energy   TEWEN  =       385.77181787
  -Hartree energ DENC   =      -646.14645770
  -exchange      EXHF   =         0.00000000
  -V(xc)+E(xc)   XCENC  =        28.79945099
  PAW double counting   =      3213.93360288    -3216.00660720
  entropy T*S    EENTRO =         0.00049017
  eigenvalues    EBANDS =       -82.38963752
  atomic energy  EATOM  =       294.30283995
  Solvation  Ediel_sol  =         0.00000000
  ---------------------------------------------------
  free energy    TOTEN  =       -18.02199335 eV

  energy without entropy =      -18.02248352  energy(sigma->0) =      -18.02215674


--------------------------------------------------------------------------------------------------------




--------------------------------------- Iteration      1(  11)  ---------------------------------------


    POTLOK:  cpu time      0.0958: real time      0.0163
    SETDIJ:  cpu time      0.0214: real time      0.0014
     EDDAV:  cpu time      7.6069: real time      1.2680
       DOS:  cpu time      0.0006: real time      0.0006
    CHARGE:  cpu time      0.4315: real time      0.0716
    MIXING:  cpu time      0.0009: real time      0.0009
    --------------------------------------------
      LOOP:  cpu time      8.1571: real time      1.3589

 eigenvalue-minimisations  :   680
 total energy-change (2. order) : 0.2598433E-02  (-0.3739597E-03)
 number of electron       8.0000003 magnetization 
 augmentation part        0.3352503 magnetization 

 Broyden mixing:
  rms(total) = 0.50146E-02    rms(broyden)= 0.50131E-02
  rms(prec ) = 0.87595E-02
  weight for this iteration     100.00

 eigenvalues of (default mixing * dielectric matrix)
  average eigenvalue GAMMA=   2.4540
  4.9532  3.4351  2.5097  1.9063  0.9598  0.9598

 Free energy of the ion-electron system (eV)
  ---------------------------------------------------
  alpha Z        PSCENC =         3.71250722
  Ewald energy   TEWEN  =       385.77181787
  -Hartree energ DENC   =      -649.04861951
  -exchange      EXHF   =         0.00000000
  -V(xc)+E(xc)   XCENC  =        28.83853413
  PAW double counting   =      3215.05507365    -3217.12575903
  entropy T*S    EENTRO =         0.00048071
  eigenvalues    EBANDS =       -79.52626990
  atomic energy  EATOM  =       294.30283995
  Solvation  Ediel_sol  =         0.00000000
  ---------------------------------------------------
  free energy    TOTEN  =       -18.01939491 eV

  energy without entropy =      -18.01987562  energy(sigma->0) =      -18.01955515


--------------------------------------------------------------------------------------------------------




--------------------------------------- Iteration      1(  12)  ---------------------------------------


    POTLOK:  cpu time      0.0964: real time      0.0160
    SETDIJ:  cpu time      0.0013: real time      0.0013
     EDDAV:  cpu time      8.6844: real time      1.4459
       DOS:  cpu time      0.0006: real time      0.0006
    CHARGE:  cpu time      0.4101: real time      0.0701
    MIXING:  cpu time      0.0210: real time      0.0010
    --------------------------------------------
      LOOP:  cpu time      9.2137: real time      1.5349

 eigenvalue-minimisations  :   792
 total energy-change (2. order) :-0.2263223E-02  (-0.3363015E-04)
 number of electron       8.0000003 magnetization 
 augmentation part        0.3349898 magnetization 

 Broyden mixing:
  rms(total) = 0.31686E-02    rms(broyden)= 0.31682E-02
  rms(prec ) = 0.35995E-02
  weight for this iteration     100.00

 eigenvalues of (default mixing * dielectric matrix)
  average eigenvalue GAMMA=   2.3816
  6.7426  2.8859  2.4966  1.9401  0.9506  0.9506  0.7050

 Free energy of the ion-electron system (eV)
  ---------------------------------------------------
  alpha Z        PSCENC =         3.71250722
  Ewald energy   TEWEN  =       385.77181787
  -Hartree energ DENC   =      -649.53486532
  -exchange      EXHF   =         0.00000000
  -V(xc)+E(xc)   XCENC  =        28.83677483
  PAW double counting   =      3212.02414504    -3214.09639362
  entropy T*S    EENTRO =         0.00048517
  eigenvalues    EBANDS =       -79.03896929
  atomic energy  EATOM  =       294.30283995
  Solvation  Ediel_sol  =         0.00000000
  ---------------------------------------------------
  free energy    TOTEN  =       -18.02165814 eV

  energy without entropy =      -18.02214330  energy(sigma->0) =      -18.02181986


--------------------------------------------------------------------------------------------------------




--------------------------------------- Iteration      1(  13)  ---------------------------------------


    POTLOK:  cpu time      0.0961: real time      0.0161
    SETDIJ:  cpu time      0.0012: real time      0.0012
     EDDAV:  cpu time      7.8444: real time      1.3067
       DOS:  cpu time      0.0006: real time      0.0006
    CHARGE:  cpu time      0.4100: real time      0.0700
    MIXING:  cpu time      0.0009: real time      0.0009
    --------------------------------------------
      LOOP:  cpu time      8.3534: real time      1.3957

 eigenvalue-minimisations  :   704
 total energy-change (2. order) :-0.1430583E-03  (-0.2496614E-05)
 number of electron       8.0000003 magnetization 
 augmentation part        0.3350946 magnetization 

 Broyden mixing:
  rms(total) = 0.20228E-02    rms(broyden)= 0.20228E-02
  rms(prec ) = 0.22693E-02
  weight for this iteration     100.00

 eigenvalues of (default mixing * dielectric matrix)
  average eigenvalue GAMMA=   2.5595
  7.7002  3.4434  2.3623  2.2187  1.8347  0.9814  0.9814  0.9541

 Free energy of the ion-electron system (eV)
  ---------------------------------------------------
  alpha Z        PSCENC =         3.71250722
  Ewald energy   TEWEN  =       385.77181787
  -Hartree energ DENC   =      -649.46136653
  -exchange      EXHF   =         0.00000000
  -V(xc)+E(xc)   XCENC  =        28.83416507
  PAW double counting   =      3212.11017962    -3214.18149523
  entropy T*S    EENTRO =         0.00048555
  eigenvalues    EBANDS =       -79.11093472
  atomic energy  EATOM  =       294.30283995
  Solvation  Ediel_sol  =         0.00000000
  ---------------------------------------------------
  free energy    TOTEN  =       -18.02180119 eV

  energy without entropy =      -18.02228674  energy(sigma->0) =      -18.02196304


--------------------------------------------------------------------------------------------------------




--------------------------------------- Iteration      1(  14)  ---------------------------------------


    POTLOK:  cpu time      0.1162: real time      0.0162
    SETDIJ:  cpu time      0.0012: real time      0.0012
     EDDAV:  cpu time      7.5840: real time      1.2666
       DOS:  cpu time      0.0206: real time      0.0006
    CHARGE:  cpu time      0.4103: real time      0.0705
    MIXING:  cpu time      0.0210: real time      0.0010
    --------------------------------------------
      LOOP:  cpu time      8.1534: real time      1.3562

 eigenvalue-minimisations  :   680
 total energy-change (2. order) :-0.3826110E-03  (-0.8015684E-05)
 number of electron       8.0000003 magnetization 
 augmentation part        0.3351654 magnetization 

 Broyden mixing:
  rms(total) = 0.55521E-03    rms(broyden)= 0.55520E-03
  rms(prec ) = 0.61327E-03
  weight for this iteration     100.00

 eigenvalues of (default mixing * dielectric matrix)
  average eigenvalue GAMMA=   2.5312
  8.0434  3.8485  2.5345  2.4609  1.9864  1.0285  0.9101  0.9840  0.9840

 Free energy of the ion-electron system (eV)
  ---------------------------------------------------
  alpha Z        PSCENC =         3.71250722
  Ewald energy   TEWEN  =       385.77181787
  -Hartree energ DENC   =      -649.40203099
  -exchange      EXHF   =         0.00000000
  -V(xc)+E(xc)   XCENC  =        28.83189931
  PAW double counting   =      3211.95813361    -3214.02883362
  entropy T*S    EENTRO =         0.00048414
  eigenvalues    EBANDS =       -79.16900131
  atomic energy  EATOM  =       294.30283995
  Solvation  Ediel_sol  =         0.00000000
  ---------------------------------------------------
  free energy    TOTEN  =       -18.02218381 eV

  energy without entropy =      -18.02266794  energy(sigma->0) =      -18.02234518


--------------------------------------------------------------------------------------------------------




--------------------------------------- Iteration      1(  15)  ---------------------------------------


    POTLOK:  cpu time      0.0960: real time      0.0160
    SETDIJ:  cpu time      0.0012: real time      0.0012
     EDDAV:  cpu time      9.2640: real time      1.5451
       DOS:  cpu time      0.0007: real time      0.0007
    --------------------------------------------
      LOOP:  cpu time      9.3619: real time      1.5630

 eigenvalue-minimisations  :   848
 total energy-change (2. order) :-0.2404081E-04  (-0.1912036E-06)
 number of electron       8.0000003 magnetization 
 augmentation part        0.3351654 magnetization 

 Free energy of the ion-electron system (eV)
  ---------------------------------------------------
  alpha Z        PSCENC =         3.71250722
  Ewald energy   TEWEN  =       385.77181787
  -Hartree energ DENC   =      -649.41243926
  -exchange      EXHF   =         0.00000000
  -V(xc)+E(xc)   XCENC  =        28.83240656
  PAW double counting   =      3211.66046692    -3213.73129188
  entropy T*S    EENTRO =         0.00048377
  eigenvalues    EBANDS =       -79.15899900
  atomic energy  EATOM  =       294.30283995
  Solvation  Ediel_sol  =         0.00000000
  ---------------------------------------------------
  free energy    TOTEN  =       -18.02220785 eV

  energy without entropy =      -18.02269162  energy(sigma->0) =      -18.02236910


--------------------------------------------------------------------------------------------------------




 average (electrostatic) potential at core
  the test charge radii are     0.8471
  (the norm of the test charge is              1.0000)
       1 -80.9591       2 -80.9591



 E-fermi :  -0.9014     XC(G=0):  -4.3407     alpha+bet : -4.2260

 val. band max:       -1.0651065177   @ k =   0.3333   0.3333   0.0000
 cond. band min:      -0.7377916912   @ k =   0.3333   0.3333   0.0000
 fundamental gap:      0.3273148265
 Fermi energy:        -0.9014491048

 k-point     1 :       0.0000    0.0000    0.0000
  band No.  band energies     occupation 
      1     -20.4779      2.00000
      2      -8.5532      2.00000
      3      -3.8608      2.00000
      4      -3.0732      2.00000
      5       2.0203     -0.00000
      6       3.8402      0.00000
      7       4.6742      0.00000
      8       7.1764      0.00000

 k-point     2 :       0.1111    0.0000    0.0000
  band No.  band energies     occupation 
      1     -20.1785      2.00000
      2      -8.2084      2.00000
      3      -4.5168      2.00000
      4      -4.1969      2.00000
      5       2.4022     -0.00000
      6       4.2422      0.00000
      7       5.0185      0.00000
      8       7.3869      0.00000

 k-point     3 :       0.0000    0.1111    0.0000
  band No.  band energies     occupation 
      1     -20.1794      2.00000
      2      -8.2067      2.00000
      3      -4.8102      2.00000
      4      -3.8804      2.00000
      5       2.4023     -0.00000
      6       4.2431      0.00000
      7       5.0190      0.00000
      8       7.5325      0.00000

 k-point     4 :      -0.1111    0.1111    0.0000
  band No.  band energies     occupation 
      1     -20.1802      2.00000
      2      -8.2053      2.00000
      3      -4.9269      2.00000
      4      -3.7539      2.00000
      5       2.4022     -0.00000
      6       4.2437      0.00000
      7       5.0194      0.00000
      8       7.8827      0.00000

 k-point     5 :       0.2222    0.0000    0.0000
  band No.  band energies     occupation 
      1     -19.2861      2.00000
      2      -7.3837      2.00000
      3      -6.9001      2.00000
      4      -5.4798      2.00000
      5       3.4708      0.00000
      6       5.4167      0.00000
      7       5.7657      0.00000
      8       7.3479      0.00000

 k-point     6 :       0.0000    0.2222    0.0000
  band No.  band energies     occupation 
      1     -19.2899      2.00000
      2      -7.5124      2.00000
      3      -6.9837      2.00000
      4      -5.2050      2.00000
      5       3.4651      0.00000
      6       5.4274      0.00000
      7       5.7436      0.00000
      8       7.4127      0.00000

 k-point     7 :      -0.2222    0.2222    0.0000
  band No.  band energies     occupation 
      1     -19.2929      2.00000
      2      -7.6135      2.00000
      3      -7.0057      2.00000
      4      -5.0461      2.00000
      5       3.4601      0.00000
      6       5.4362      0.00000
      7       5.7266      0.00000
      8       7.5168      0.00000

 k-point     8 :       0.3333    0.0000    0.0000
  band No.  band energies     occupation 
      1     -17.8229      2.00000
      2     -10.2083      2.00000
      3      -6.4926      2.00000
      4      -5.5418      2.00000
      5       3.5214      0.00000
      6       6.1192      0.00000
      7       7.1462      0.00000
      8       7.5135      0.00000

 k-point     9 :       0.0000    0.3333    0.0000
  band No.  band energies     occupation 
      1     -17.8295      2.00000
      2     -10.3521      2.00000
      3      -6.2852      2.00000
      4      -5.5002      2.00000
      5       3.4113      0.00000
      6       6.1091      0.00000
      7       7.1948      0.00000
      8       7.5134      0.00000

 k-point    10 :      -0.3333    0.3333    0.0000
  band No.  band energies     occupation 
      1     -17.8350      2.00000
      2     -10.4524      2.00000
      3      -6.1480      2.00000
      4      -5.4667      2.00000
      5       3.3225      0.00000
      6       6.1015      0.00000
      7       7.2894      0.00000
      8       7.5380      0.00000

 k-point    11 :       0.4444    0.0000    0.0000
  band No.  band energies     occupation 
      1     -15.8841      2.00000
      2     -13.0361      2.00000
      3      -7.0530      2.00000
      4      -3.7597      2.00000
      5       1.3419     -0.00000
      6       6.9112      0.00000
      7       8.6727      0.00000
      8      10.1137      0.00000

 k-point    12 :       0.0000    0.4444    0.0000
  band No.  band energies     occupation 
      1     -15.8726      2.00000
      2     -13.1663      2.00000
      3      -6.8720      2.00000
      4      -3.6390      2.00000
      5       1.1200     -0.00000
      6       6.9477      0.00000
      7       8.6728      0.00000
      8      10.1193      0.00000

 k-point    13 :      -0.4444    0.4444    0.0000
  band No.  band energies     occupation 
      1     -15.8645      2.00000
      2     -13.2621      2.00000
      3      -6.7482      2.00000
      4      -3.5361      2.00000
      5       0.9374     -0.00000
      6       7.0432      0.00000
      7       8.6721      0.00000
      8      10.1233      0.00000

 k-point    14 :       0.1111    0.1111    0.0000
  band No.  band energies     occupation 
      1     -19.5829      2.00000
      2      -7.5449      2.00000
      3      -6.0070      2.00000
      4      -5.4899      2.00000
      5       3.1365      0.00000
      6       5.0408      0.00000
      7       5.5992      0.00000
      8       7.7027      0.00000

 k-point    15 :      -0.1111    0.2222    0.0000
  band No.  band energies     occupation 
      1     -19.5879      2.00000
      2      -7.5521      2.00000
      3      -6.4640      2.00000
      4      -4.9698      2.00000
      5       3.1347      0.00000
      6       5.0456      0.00000
      7       5.5977      0.00000
      8       8.0241      0.00000

 k-point    16 :      -0.2222    0.1111    0.0000
  band No.  band energies     occupation 
      1     -19.5851      2.00000
      2      -7.5472      2.00000
      3      -6.2548      2.00000
      4      -5.2220      2.00000
      5       3.1358      0.00000
      6       5.0426      0.00000
      7       5.6003      0.00000
      8       7.8987      0.00000

 k-point    17 :       0.2222    0.1111    0.0000
  band No.  band energies     occupation 
      1     -18.4040      2.00000
      2      -8.6304      2.00000
      3      -6.9260      2.00000
      4      -6.1416      2.00000
      5       4.0349      0.00000
      6       5.7885      0.00000
      7       6.6254      0.00000
      8       8.1176      0.00000

 k-point    18 :      -0.1111    0.3333    0.0000
  band No.  band energies     occupation 
      1     -18.4140      2.00000
      2      -8.9277      2.00000
      3      -6.5737      2.00000
      4      -6.1033      2.00000
      5       3.9593      0.00000
      6       5.7370      0.00000
      7       6.6367      0.00000
      8       8.1085      0.00000

 k-point    19 :      -0.3333    0.2222    0.0000
  band No.  band energies     occupation 
      1     -18.4120      2.00000
      2      -8.9271      2.00000
      3      -6.5790      2.00000
      4      -6.1042      2.00000
      5       3.9650      0.00000
      6       5.7468      0.00000
      7       6.6247      0.00000
      8       8.1093      0.00000

 k-point    20 :      -0.2222    0.3333    0.0000
  band No.  band energies     occupation 
      1     -18.4161      2.00000
      2      -9.0069      2.00000
      3      -6.4793      2.00000
      4      -6.0910      2.00000
      5       3.9362      0.00000
      6       5.7262      0.00000
      7       6.6328      0.00000
      8       8.1037      0.00000

 k-point    21 :       0.1111    0.2222    0.0000
  band No.  band energies     occupation 
      1     -18.4065      2.00000
      2      -8.7725      2.00000
      3      -6.7574      2.00000
      4      -6.1264      2.00000
      5       4.0081      0.00000
      6       5.7743      0.00000
      7       6.6201      0.00000
      8       8.1134      0.00000

 k-point    22 :       0.3333   -0.1111    0.0000
  band No.  band energies     occupation 
      1     -18.4073      2.00000
      2      -8.7109      2.00000
      3      -6.8371      2.00000
      4      -6.1315      2.00000
      5       4.0150      0.00000
      6       5.7717      0.00000
      7       6.6340      0.00000
      8       8.1194      0.00000

 k-point    23 :       0.3333    0.1111    0.0000
  band No.  band energies     occupation 
      1     -16.6860      2.00000
      2     -11.5279      2.00000
      3      -7.7673      2.00000
      4      -4.3682      2.00000
      5       2.3283     -0.00000
      6       7.5460      0.00000
      7       8.2615      0.00000
      8       8.9258      0.00000

 k-point    24 :      -0.1111    0.4444    0.0000
  band No.  band energies     occupation 
      1     -16.6947      2.00000
      2     -11.6834      2.00000
      3      -7.5568      2.00000
      4      -4.2748      2.00000
      5       2.1143     -0.00000
      6       7.5410      0.00000
      7       8.3734      0.00000
      8       8.9436      0.00000

 k-point    25 :      -0.4444    0.3333    0.0000
  band No.  band energies     occupation 
      1     -16.6925      2.00000
      2     -11.7493      2.00000
      3      -7.4737      2.00000
      4      -4.2505      2.00000
      5       2.0590     -0.00000
      6       7.5419      0.00000
      7       8.4475      0.00000
      8       8.9391      0.00000

 k-point    26 :      -0.3333    0.4444    0.0000
  band No.  band energies     occupation 
      1     -16.6965      2.00000
      2     -11.7677      2.00000
      3      -7.4464      2.00000
      4      -4.2287      2.00000
      5       2.0110     -0.00000
      6       7.5399      0.00000
      7       8.4749      0.00000
      8       8.9450      0.00000

 k-point    27 :       0.1111    0.3333    0.0000
  band No.  band energies     occupation 
      1     -16.6876      2.00000
      2     -11.6491      2.00000
      3      -7.6036      2.00000
      4      -4.3128      2.00000
      5       2.1998     -0.00000
      6       7.5443      0.00000
      7       8.3053      0.00000
      8       8.9299      0.00000

 k-point    28 :       0.4444   -0.1111    0.0000
  band No.  band energies     occupation 
      1     -16.6892      2.00000
      2     -11.5439      2.00000
      3      -7.7476      2.00000
      4      -4.3520      2.00000
      5       2.2908     -0.00000
      6       7.5446      0.00000
      7       8.3029      0.00000
      8       8.9326      0.00000

 k-point    29 :       0.4444    0.1111    0.0000
  band No.  band energies     occupation 
      1     -14.9748      2.00000
      2     -13.6755      2.00000
      3      -8.0552      2.00000
      4      -3.0988      2.00000
      5       0.8030     -0.00000
      6       8.1537      0.00000
      7      10.3081      0.00000
      8      10.7187      0.00000

 k-point    30 :      -0.1111   -0.4444    0.0000
  band No.  band energies     occupation 
      1     -14.8905      2.00000
      2     -13.8772      2.00000
      3      -7.8913      2.00000
      4      -2.9405      2.00000
      5       0.5469     -0.00000
      6       8.1972      0.00000
      7      10.3498      0.00000
      8      10.6906      0.00000

 k-point    31 :       0.4444    0.4444    0.0000
  band No.  band energies     occupation 
      1     -14.8033      2.00000
      2     -14.0504      2.00000
      3      -7.7781      2.00000
      4      -2.7985      2.00000
      5       0.3284     -0.00000
      6       8.3023      0.00000
      7      10.3769      0.00000
      8      10.6646      0.00000

 k-point    32 :       0.2222    0.2222    0.0000
  band No.  band energies     occupation 
      1     -16.9675      2.00000
      2     -10.2020      2.00000
      3      -8.9707      2.00000
      4      -4.5845      2.00000
      5       2.8344     -0.00000
      6       7.2099      0.00000
      7       8.4331      0.00000
      8       9.8887      0.00000

 k-point    33 :      -0.2222    0.4444    0.0000
  band No.  band energies     occupation 
      1     -16.9801      2.00000
      2     -10.5342      2.00000
      3      -8.5963      2.00000
      4      -4.5024      2.00000
      5       2.6199     -0.00000
      6       7.1971      0.00000
      7       8.4818      0.00000
      8       9.8802      0.00000

 k-point    34 :      -0.4444    0.2222    0.0000
  band No.  band energies     occupation 
      1     -16.9732      2.00000
      2     -10.3625      2.00000
      3      -8.7956      2.00000
      4      -4.5485      2.00000
      5       2.7396     -0.00000
      6       7.2040      0.00000
      7       8.4562      0.00000
      8       9.8853      0.00000

 k-point    35 :       0.3333    0.2222    0.0000
  band No.  band energies     occupation 
      1     -15.0899      2.00000
      2     -12.3883      2.00000
      3      -9.9730      2.00000
      4      -2.7846      2.00000
      5       0.9045     -0.00000
      6       9.7280      0.00000
      7      10.0113      0.00000
      8      11.0929      0.00000

 k-point    36 :      -0.2222   -0.4444    0.0000
  band No.  band energies     occupation 
      1     -15.0726      2.00000
      2     -12.5925      2.00000
      3      -9.7615      2.00000
      4      -2.6210      2.00000
      5       0.6360     -0.00000
      6       9.7701      0.00000
      7      10.0617      0.00000
      8      11.2088      0.00000

 k-point    37 :       0.4444    0.3333    0.0000
  band No.  band energies     occupation 
      1     -15.0615      2.00000
      2     -12.6330      2.00000
      3      -9.7288      2.00000
      4      -2.6122      2.00000
      5       0.6227     -0.00000
      6       9.7791      0.00000
      7      10.0478      0.00000
      8      11.2858      0.00000

 k-point    38 :      -0.3333   -0.4444    0.0000
  band No.  band energies     occupation 
      1     -15.0603      2.00000
      2     -12.6759      2.00000
      3      -9.6810      2.00000
      4      -2.5566      2.00000
      5       0.5352     -0.00000
      6       9.7893      0.00000
      7      10.0742      0.00000
      8      11.2948      0.00000

 k-point    39 :       0.2222    0.3333    0.0000
  band No.  band energies     occupation 
      1     -15.0740      2.00000
      2     -12.5127      2.00000
      3      -9.8486      2.00000
      4      -2.7138      2.00000
      5       0.7867     -0.00000
      6       9.7444      0.00000
      7      10.0182      0.00000
      8      11.1423      0.00000

 k-point    40 :      -0.4444   -0.2222    0.0000
  band No.  band energies     occupation 
      1     -15.0896      2.00000
      2     -12.4261      2.00000
      3      -9.9329      2.00000
      4      -2.7467      2.00000
      5       0.8405     -0.00000
      6       9.7428      0.00000
      7      10.0294      0.00000
      8      11.1476      0.00000

 k-point    41 :       0.3333    0.3333    0.0000
  band No.  band energies     occupation 
      1     -13.4913      2.00000
      2     -13.2334      2.00000
      3     -11.2957      2.00000
      4      -1.0651      1.98916
      5      -0.7378      0.01084
      6       9.4324      0.00000
      7      12.3524      0.00000
      8      12.5266      0.00000


--------------------------------------------------------------------------------------------------------


 soft charge-density along one line, spin component           1
         0         1         2         3         4         5         6         7         8         9
 total charge-density along one line

 pseudopotential strength for first ion, spin component:           1
 19.331  22.753  -0.000  -0.003  -0.001  -0.000  -0.005  -0.002
 22.753  26.783  -0.000  -0.003  -0.002  -0.000  -0.006  -0.003
 -0.000  -0.000  -2.614   0.000   0.006  -3.151   0.000   0.008
 -0.003  -0.003   0.000  -2.553  -0.001   0.000  -3.068  -0.002
 -0.001  -0.002   0.006  -0.001  -2.614   0.008  -0.002  -3.151
 -0.000  -0.000  -3.151   0.000   0.008  -3.717   0.000   0.010
 -0.005  -0.006   0.000  -3.068  -0.002   0.000  -3.605  -0.003
 -0.002  -0.003   0.008  -0.002  -3.151   0.010  -0.003  -3.716
 total augmentation occupancy for first ion, spin component:           1
 19.810 -12.637   0.008   2.244   0.397  -0.005  -1.328  -0.249
-12.637   8.242  -0.006  -1.706  -0.253   0.004   0.953   0.159
  0.008  -0.006  12.721   0.001  -0.409  -6.746  -0.001   0.242
  2.244  -1.706   0.001   5.244   0.068  -0.000  -2.361  -0.041
  0.397  -0.253  -0.409   0.068  12.672   0.242  -0.040  -6.717
 -0.005   0.004  -6.746  -0.000   0.242   3.623   0.000  -0.140
 -1.328   0.953  -0.001  -2.361  -0.040   0.000   1.089   0.024
 -0.249   0.159   0.242  -0.041  -6.717  -0.140   0.024   3.606


------------------------ aborting loop because EDIFF is reached ----------------------------------------


    CHARGE:  cpu time      0.4082: real time      0.0694
    FORLOC:  cpu time      0.0002: real time      0.0002
    FORNL :  cpu time      2.2060: real time      0.3661
    FORHAR:  cpu time      0.0269: real time      0.0069
    MIXING:  cpu time      0.0210: real time      0.0010
    OFIELD:  cpu time      0.0000: real time      0.0000

 VOLUME and BASIS-vectors are now :
 -----------------------------------------------------------------------------
  energy-cutoff  :      400.00
  volume of cell :       51.60
      direct lattice vectors                 reciprocal lattice vectors
     2.441046239  0.000000000  0.000000000     0.409660409  0.236517547 -0.000000000
    -1.220523120  2.114008055  0.000000000     0.000000000  0.473035094  0.000000000
     0.000000000  0.000000000 10.000000000     0.000000000 -0.000000000  0.100000000

  length of vectors
     2.441046239  2.441046239 10.000000000     0.473035094  0.473035094  0.100000000


 FORCES acting on ions
    electron-ion (+dipol)            ewald-force                    non-local-force                 convergence-correction
 -----------------------------------------------------------------------------------------------
   0.455E+01 0.249E-01 0.575E+02   -.460E+01 -.326E-01 -.606E+02   -.118E+01 -.151E-01 0.647E+01   0.641E-03 -.990E-04 -.254E-04
   -.455E+01 -.249E-01 -.575E+02   0.460E+01 0.326E-01 0.606E+02   0.118E+01 0.151E-01 -.647E+01   -.641E-03 0.990E-04 0.254E-04
 -----------------------------------------------------------------------------------------------
   0.263E-04 -.448E-05 -.502E-05   0.178E-14 0.143E-14 0.000E+00   -.222E-15 -.173E-17 0.000E+00   -.111E-08 0.936E-09 0.523E-08


 POSITION                                       TOTAL-FORCE (eV/Angst)
 -----------------------------------------------------------------------------------
      0.12205      0.21140      5.00000        -1.227595     -0.022846      3.341220
      0.09520      1.61933      5.20000         1.227595      0.022846     -3.341220
 -----------------------------------------------------------------------------------
    total drift:                                0.000026     -0.000004     -0.000005


--------------------------------------------------------------------------------------------------------



  FREE ENERGIE OF THE ION-ELECTRON SYSTEM (eV)
  ---------------------------------------------------
  free  energy   TOTEN  =       -18.02220785 eV

  energy  without entropy=      -18.02269162  energy(sigma->0) =      -18.02236910



--------------------------------------------------------------------------------------------------------


    POTLOK:  cpu time      0.0979: real time      0.0179


--------------------------------------------------------------------------------------------------------


           RANDOM_SEED =         698674772                0                0
           RANDOM_SEED =         698674772                0                0
   IONSTEP:  cpu time      0.0466: real time      0.0085

  ENERGY OF THE ELECTRON-ION-THERMOSTAT SYSTEM (eV)
  ---------------------------------------------------
% ion-electron   TOTEN  =       -18.022208  see above
  kinetic energy EKIN   =         0.000025
  kin. lattice  EKIN_LAT=         0.000000  (temperature    0.20 K)
  nose potential ES     =         0.000000
  nose kinetic   EPS    =         0.000000
  ---------------------------------------------------
  total energy   ETOTAL =       -18.022182 eV

  maximum distance moved by ions :      0.49E-05

    WAVPRE:  cpu time      0.0359: real time      0.0071
[...]
      7       6.6561      0.00000
      8       7.3619      0.00000

 k-point     6 :       0.0000    0.2222    0.0000
  band No.  band energies     occupation 
      1     -19.3857      2.00000
      2      -7.5666      2.00000
      3      -7.2195      2.00000
      4      -5.5600      2.00000
      5       3.8575      0.00000
      6       5.4133      0.00000
      7       6.6499      0.00000
      8       7.4418      0.00000

 k-point     7 :      -0.2222    0.2222    0.0000
  band No.  band energies     occupation 
      1     -19.3825      2.00000
      2      -7.3839      2.00000
      3      -7.2303      2.00000
      4      -5.7838      2.00000
      5       3.8571      0.00000
      6       5.4069      0.00000
      7       6.6451      0.00000
      8       7.5316      0.00000

 k-point     8 :       0.3333    0.0000    0.0000
  band No.  band energies     occupation 
      1     -17.9421      2.00000
      2     -10.6330      2.00000
      3      -6.4848      2.00000
      4      -5.5177      2.00000
      5       4.1169      0.00000
      6       5.8739      0.00000
      7       7.3005      0.00000
      8       7.4434      0.00000

 k-point     9 :       0.0000    0.3333    0.0000
  band No.  band energies     occupation 
      1     -17.9354      2.00000
      2     -10.5274      2.00000
      3      -6.6343      2.00000
      4      -5.5557      2.00000
      5       4.2337      0.00000
      6       5.8735      0.00000
      7       7.1845      0.00000
      8       7.4504      0.00000

 k-point    10 :      -0.3333    0.3333    0.0000
  band No.  band energies     occupation 
      1     -17.9293      2.00000
      2     -10.4123      2.00000
      3      -6.8037      2.00000
      4      -5.5918      2.00000
      5       4.3455      0.00000
      6       5.8734      0.00000
      7       7.1386      0.00000
      8       7.4585      0.00000

 k-point    11 :       0.4444    0.0000    0.0000
  band No.  band energies     occupation 
      1     -15.9843      2.00000
      2     -13.4207      2.00000
      3      -7.0846      2.00000
      4      -3.5488      2.00000
      5       1.2544     -0.00000
      6       7.0012      0.00000
      7       8.6929      0.00000
      8      10.1686      0.00000

 k-point    12 :       0.0000    0.4444    0.0000
  band No.  band energies     occupation 
      1     -15.9894      2.00000
      2     -13.3233      2.00000
      3      -7.2196      2.00000
      4      -3.6651      2.00000
      5       1.4624     -0.00000
      6       6.9139      0.00000
      7       8.6958      0.00000
      8      10.1680      0.00000

 k-point    13 :      -0.4444    0.4444    0.0000
  band No.  band energies     occupation 
      1     -15.9954      2.00000
      2     -13.2221      2.00000
      3      -7.3676      2.00000
      4      -3.7697      2.00000
      5       1.6564     -0.00000
      6       6.8846      0.00000
      7       8.6984      0.00000
      8      10.1675      0.00000

 k-point    14 :       0.1111    0.1111    0.0000
  band No.  band energies     occupation 
      1     -19.6819      2.00000
      2      -7.5594      2.00000
      3      -6.7590      2.00000
      4      -5.3243      2.00000
      5       3.4544      0.00000
      6       5.0254      0.00000
      7       6.2727      0.00000
      8       8.1846      0.00000

 k-point    15 :      -0.1111    0.2222    0.0000
  band No.  band energies     occupation 
      1     -19.6769      2.00000
      2      -7.5748      2.00000
      3      -6.3067      2.00000
      4      -5.8125      2.00000
      5       3.4527      0.00000
      6       5.0209      0.00000
      7       6.2640      0.00000
      8       8.0212      0.00000

 k-point    16 :      -0.2222    0.1111    0.0000
  band No.  band energies     occupation 
      1     -19.6794      2.00000
      2      -7.5670      2.00000
      3      -6.5787      2.00000
      4      -5.5280      2.00000
      5       3.4537      0.00000
      6       5.0230      0.00000
      7       6.2693      0.00000
      8       8.2418      0.00000

 k-point    17 :       0.2222    0.1111    0.0000
  band No.  band energies     occupation 
      1     -18.5186      2.00000
      2      -9.1850      2.00000
      3      -6.7994      2.00000
      4      -6.1734      2.00000
      5       5.0638      0.00000
      6       5.4327      0.00000
      7       6.6241      0.00000
      8       7.8707      0.00000

 k-point    18 :      -0.1111    0.3333    0.0000
  band No.  band energies     occupation 
      1     -18.5086      2.00000
      2      -8.9623      2.00000
      3      -7.0638      2.00000
      4      -6.2124      2.00000
      5       5.0646      0.00000
      6       5.6034      0.00000
      7       6.6208      0.00000
      8       7.8341      0.00000

 k-point    19 :      -0.3333    0.2222    0.0000
  band No.  band energies     occupation 
      1     -18.5101      2.00000
      2      -8.9232      2.00000
      3      -7.1198      2.00000
      4      -6.2100      2.00000
      5       5.0663      0.00000
      6       5.5704      0.00000
      7       6.6420      0.00000
      8       7.8582      0.00000

 k-point    20 :      -0.2222    0.3333    0.0000
  band No.  band energies     occupation 
      1     -18.5062      2.00000
      2      -8.8445      2.00000
      3      -7.2060      2.00000
      4      -6.2237      2.00000
      5       5.0654      0.00000
      6       5.6394      0.00000
      7       6.6341      0.00000
      8       7.8326      0.00000

 k-point    21 :       0.1111    0.2222    0.0000
  band No.  band energies     occupation 
      1     -18.5162      2.00000
      2      -9.0976      2.00000
      3      -6.9067      2.00000
      4      -6.1853      2.00000
      5       5.0653      0.00000
      6       5.4713      0.00000
      7       6.6353      0.00000
      8       7.8703      0.00000

 k-point    22 :       0.3333   -0.1111    0.0000
  band No.  band energies     occupation 
      1     -18.5149      2.00000
      2      -9.1243      2.00000
      3      -6.8743      2.00000
      4      -6.1868      2.00000
      5       5.0641      0.00000
      6       5.4954      0.00000
      7       6.6176      0.00000
      8       7.8600      0.00000

 k-point    23 :       0.3333    0.1111    0.0000
  band No.  band energies     occupation 
      1     -16.8122      2.00000
      2     -11.9341      2.00000
      3      -7.7571      2.00000
      4      -4.2550      2.00000
      5       2.4384     -0.00000
      6       7.4775      0.00000
      7       8.4093      0.00000
      8       8.9495      0.00000

 k-point    24 :      -0.1111    0.4444    0.0000
  band No.  band energies     occupation 
      1     -16.8011      2.00000
      2     -11.8189      2.00000
      3      -7.9165      2.00000
      4      -4.3450      2.00000
      5       2.6522     -0.00000
      6       7.4665      0.00000
      7       8.2479      0.00000
      8       8.9282      0.00000

 k-point    25 :      -0.4444    0.3333    0.0000
  band No.  band energies     occupation 
      1     -16.8027      2.00000
      2     -11.7360      2.00000
      3      -8.0318      2.00000
      4      -4.3753      2.00000
      5       2.7179     -0.00000
      6       7.4788      0.00000
      7       8.2566      0.00000
      8       8.9449      0.00000

 k-point    26 :      -0.3333    0.4444    0.0000
  band No.  band energies     occupation 
      1     -16.7986      2.00000
      2     -11.7221      2.00000
      3      -8.0506      2.00000
      4      -4.3937      2.00000
      5       2.7665     -0.00000
      6       7.4700      0.00000
      7       8.2115      0.00000
      8       8.9314      0.00000

 k-point    27 :       0.1111    0.3333    0.0000
  band No.  band energies     occupation 
      1     -16.8091      2.00000
      2     -11.8452      2.00000
      3      -7.8776      2.00000
      4      -4.3080      2.00000
      5       2.5578     -0.00000
      6       7.4807      0.00000
      7       8.3182      0.00000
      8       8.9532      0.00000

 k-point    28 :       0.4444   -0.1111    0.0000
  band No.  band energies     occupation 
      1     -16.8082      2.00000
      2     -11.9216      2.00000
      3      -7.7774      2.00000
      4      -4.2737      2.00000
      5       2.4844     -0.00000
      6       7.4725      0.00000
      7       8.3838      0.00000
      8       8.9379      0.00000

 k-point    29 :       0.4444    0.1111    0.0000
  band No.  band energies     occupation 
      1     -14.9167      2.00000
      2     -14.2172      2.00000
      3      -8.0838      2.00000
      4      -2.7972      2.00000
      5       0.5870     -0.00000
      6       8.2257      0.00000
      7      10.5817      0.00000
      8      10.6933      0.00000

 k-point    30 :      -0.1111   -0.4444    0.0000
  band No.  band energies     occupation 
      1     -15.0032      2.00000
      2     -14.0403      2.00000
      3      -8.2062      2.00000
      4      -2.9560      2.00000
      5       0.8331     -0.00000
      6       8.1298      0.00000
      7      10.5666      0.00000
      8      10.7216      0.00000

 k-point    31 :       0.4444    0.4444    0.0000
  band No.  band energies     occupation 
      1     -15.0681      2.00000
      2     -13.8816      2.00000
      3      -8.3396      2.00000
      4      -3.0924      2.00000
      5       1.0548     -0.00000
      6       8.0933      0.00000
      7      10.5515      0.00000
      8      10.7454      0.00000

 k-point    32 :       0.2222    0.2222    0.0000
  band No.  band energies     occupation 
      1     -17.0936      2.00000
      2     -10.6857      2.00000
      3      -8.9064      2.00000
      4      -4.5373      2.00000
      5       3.1394     -0.00000
      6       7.0849      0.00000
      7       8.4856      0.00000
      8       9.8724      0.00000

 k-point    33 :      -0.2222    0.4444    0.0000
  band No.  band energies     occupation 
      1     -17.0795      2.00000
      2     -10.3834      2.00000
      3      -9.2501      2.00000
      4      -4.6189      2.00000
      5       3.3763      0.00000
      6       7.0834      0.00000
      7       8.4446      0.00000
      8       9.8256      0.00000

 k-point    34 :      -0.4444    0.2222    0.0000
  band No.  band energies     occupation 
      1     -17.0868      2.00000
      2     -10.5495      2.00000
      3      -9.0664      2.00000
      4      -4.5777      2.00000
      5       3.2543      0.00000
      6       7.0847      0.00000
      7       8.4666      0.00000
      8       9.8603      0.00000

 k-point    35 :       0.3333    0.2222    0.0000
  band No.  band energies     occupation 
      1     -15.1887      2.00000
      2     -12.8248      2.00000
      3      -9.9575      2.00000
      4      -2.5378      2.00000
      5       0.7719     -0.00000
      6       9.8348      0.00000
      7      10.3179      0.00000
      8      11.1204      0.00000

 k-point    36 :      -0.2222   -0.4444    0.0000
  band No.  band energies     occupation 
      1     -15.1963      2.00000
      2     -12.6730      2.00000
      3     -10.1207      2.00000
      4      -2.7017      2.00000
      5       1.0377     -0.00000
      6       9.8253      0.00000
      7      10.2082      0.00000
      8      10.9804      0.00000

 k-point    37 :       0.4444    0.3333    0.0000
  band No.  band energies     occupation 
      1     -15.2093      2.00000
      2     -12.6088      2.00000
      3     -10.1825      2.00000
      4      -2.7201      2.00000
      5       1.0654     -0.00000
      6       9.8401      0.00000
      7      10.2335      0.00000
      8      10.9926      0.00000

 k-point    38 :      -0.3333   -0.4444    0.0000
  band No.  band energies     occupation 
      1     -15.2074      2.00000
      2     -12.5740      2.00000
      3     -10.2221      2.00000
      4      -2.7635      2.00000
      5       1.1403     -0.00000
      6       9.8320      0.00000
      7      10.1869      0.00000
      8      10.9438      0.00000

 k-point    39 :       0.2222    0.3333    0.0000
  band No.  band energies     occupation 
      1     -15.1996      2.00000
      2     -12.7374      2.00000
      3     -10.0450      2.00000
      4      -2.6108      2.00000
      5       0.8863     -0.00000
      6       9.8386      0.00000
      7      10.2977      0.00000
      8      11.0300      0.00000

 k-point    40 :      -0.4444   -0.2222    0.0000
  band No.  band energies     occupation 
      1     -15.1873      2.00000
      2     -12.7945      2.00000
      3      -9.9942      2.00000
      4      -2.5859      2.00000
      5       0.8490     -0.00000
      6       9.8300      0.00000
      7      10.2750      0.00000
      8      11.1210      0.00000

 k-point    41 :       0.3333    0.3333    0.0000
  band No.  band energies     occupation 
      1     -13.6085      2.00000
      2     -13.3760      2.00000
      3     -11.5749      2.00000
      4      -0.9602      1.98494
      5      -0.6364      0.01506
      6       9.8927      0.00000
      7      12.1430      0.00000
      8      12.3578      0.00000


--------------------------------------------------------------------------------------------------------


 soft charge-density along one line, spin component           1
         0         1         2         3         4         5         6         7         8         9
 total charge-density along one line

 pseudopotential strength for first ion, spin component:           1
 19.338  22.761   0.000   0.000   0.001   0.000   0.000   0.002
 22.761  26.792   0.000   0.000   0.002   0.000   0.000   0.003
  0.000   0.000  -2.620  -0.000  -0.006  -3.159  -0.000  -0.008
  0.000   0.000  -0.000  -2.548  -0.000  -0.000  -3.061  -0.000
  0.001   0.002  -0.006  -0.000  -2.620  -0.008  -0.000  -3.160
  0.000   0.000  -3.159  -0.000  -0.008  -3.728  -0.000  -0.010
  0.000   0.000  -0.000  -3.061  -0.000  -0.000  -3.595  -0.000
  0.002   0.003  -0.008  -0.000  -3.160  -0.010  -0.000  -3.729
 total augmentation occupancy for first ion, spin component:           1
 20.494 -13.085  -0.018  -0.140  -0.368   0.012   0.083   0.231
-13.085   8.500   0.011   0.107   0.234  -0.007  -0.060  -0.147
 -0.018   0.011  13.273   0.000   0.379  -7.078  -0.000  -0.224
 -0.140   0.107   0.000   5.225   0.004  -0.000  -2.317  -0.002
 -0.368   0.234   0.379   0.004  13.285  -0.224  -0.002  -7.085
  0.012  -0.007  -7.078  -0.000  -0.224   3.817   0.000   0.130
  0.083  -0.060  -0.000  -2.317  -0.002   0.000   1.050   0.001
  0.231  -0.147  -0.224  -0.002  -7.085   0.130   0.001   3.821


------------------------ aborting loop because EDIFF is reached ----------------------------------------


    CHARGE:  cpu time      0.4098: real time      0.0705
    FORLOC:  cpu time      0.0002: real time      0.0002
    FORNL :  cpu time      2.2059: real time      0.3665
    FORHAR:  cpu time      0.0468: real time      0.0068
    MIXING:  cpu time      0.0007: real time      0.0007
    OFIELD:  cpu time      0.0000: real time      0.0000

 VOLUME and BASIS-vectors are now :
 -----------------------------------------------------------------------------
  energy-cutoff  :      400.00
  volume of cell :       51.60
      direct lattice vectors                 reciprocal lattice vectors
     2.441046239  0.000000000  0.000000000     0.409660409  0.236517547 -0.000000000
    -1.220523120  2.114008055  0.000000000     0.000000000  0.473035094  0.000000000
     0.000000000  0.000000000 10.000000000     0.000000000 -0.000000000  0.100000000

  length of vectors
     2.441046239  2.441046239 10.000000000     0.473035094  0.473035094  0.100000000


 FORCES acting on ions
    electron-ion (+dipol)            ewald-force                    non-local-force                 convergence-correction
 -----------------------------------------------------------------------------------------------
   -.432E+01 -.286E+00 -.346E+01   0.439E+01 0.284E+00 0.367E+01   0.108E+01 0.665E-01 -.405E+00   0.299E-02 0.416E-03 -.413E-02
   0.432E+01 0.286E+00 0.346E+01   -.439E+01 -.284E+00 -.367E+01   -.108E+01 -.665E-01 0.405E+00   -.299E-02 -.416E-03 0.413E-02
 -----------------------------------------------------------------------------------------------
   -.318E-04 -.134E-04 -.732E-06   0.178E-14 0.144E-14 -.444E-15   0.222E-15 0.000E+00 0.000E+00   0.103E-07 -.128E-07 0.849E-07


 POSITION                                       TOTAL-FORCE (eV/Angst)
 -----------------------------------------------------------------------------------
      0.09669      0.21041      5.10591         1.149912      0.064364     -0.196454
      0.12056      1.62032      5.09409        -1.149912     -0.064364      0.196454
 -----------------------------------------------------------------------------------
    total drift:                               -0.000032     -0.000013     -0.000001


--------------------------------------------------------------------------------------------------------



  FREE ENERGIE OF THE ION-ELECTRON SYSTEM (eV)
  ---------------------------------------------------
  free  energy   TOTEN  =       -18.35766138 eV

  energy  without entropy=      -18.35811120  energy(sigma->0) =      -18.35781132

 d Force =-0.9232718E-03[-0.101E-02,-0.832E-03]  d Energy =-0.9230582E-03-0.214E-06
 d Force = 0.8929838E-02[ 0.106E-01, 0.728E-02]  d Ewald  = 0.8929860E-02-0.227E-07


--------------------------------------------------------------------------------------------------------


    POTLOK:  cpu time      0.0974: real time      0.0174


--------------------------------------------------------------------------------------------------------


           RANDOM_SEED =         698674772                0                0
   IONSTEP:  cpu time      0.0000: real time      0.0000

  ENERGY OF THE ELECTRON-ION-THERMOSTAT SYSTEM (eV)
  ---------------------------------------------------
% ion-electron   TOTEN  =       -18.357661  see above
  kinetic energy EKIN   =         0.335552
  kin. lattice  EKIN_LAT=         0.000000  (temperature 2595.93 K)
  nose potential ES     =         0.000000
  nose kinetic   EPS    =         0.000000
  ---------------------------------------------------
  total energy   ETOTAL =       -18.022109 eV

  maximum distance moved by ions :      0.18E-03


 mean value of Nose-termostat <S>:     1.000 mean value of <T> :  1416.332
 mean temperature <T/S>/<1/S>  :  1416.332

 Prediction of Wavefunctions ALPHA= 0.000 BETA= 0.000
    WAVPRE:  cpu time      0.2378: real time      0.0380
    FEWALD:  cpu time      0.0005: real time      0.0005
    ORTHCH:  cpu time      0.8869: real time      0.1472
    POTLOK:  cpu time      0.0956: real time      0.0156
    EDDIAG:  cpu time      0.9620: real time      0.1621
     LOOP+:  cpu time     24.5614: real time      4.0977
    4ORBIT:  cpu time      0.0000: real time      0.0000

 total amount of memory used by VASP MPI-rank0    50588. kBytes
=======================================================================

   base      :      30000. kBytes
   nonlr-proj:        221. kBytes
   fftplans  :       2000. kBytes
   grid      :       3091. kBytes
   one-center:          6. kBytes
   wavefun   :      15270. kBytes

  
  
 General timing and accounting informations for this job:
 ========================================================
  
                  Total CPU time used (sec):     2050.997
                            User time (sec):     2046.473
                          System time (sec):        4.524
                         Elapsed time (sec):      344.042
  
                   Maximum memory used (kb):       88272.
                   Average memory used (kb):          N/A
  
                          Minor page faults:       156128
                          Major page faults:           11
                 Voluntary context switches:        31989
