<?xml version="1.0" encoding="ISO-8859-1"?>
<modeling>
 <generator>
  <i name="program" type="string">vasp </i>
  <i name="version" type="string">6.4.3  </i>
  <i name="subversion" type="string">19Mar24 (build Jun 11 2024 09:57:22) complex                          parallel </i>
  <i name="platform" type="string">LinuxGNU </i>
  <i name="date" type="string">2024 07 24 </i>
  <i name="time" type="string">21:16:34 </i>
 </generator>
 <incar>
  <i type="int" name="IBRION">     0</i>
  <i type="int" name="NSW">   100</i>
  <i name="ENMAX">    400.00000000</i>
  <i name="POTIM">      0.10000000</i>
  <i name="TEBEG">    300.00000000</i>
  <i type="string" name="LREAL">Auto</i>
  <i type="logical" name="LWAVE"> F  </i>
  <i type="logical" name="LCHARG"> F  </i>
 </incar>
 <primitive_cell>
  <structure name="primitive_cell" >
   <crystal>
    <varray name="basis" >
     <v>       2.44104624       0.00000000       0.00000000 </v>
     <v>      -1.22052312       2.11400806       0.00000000 </v>
     <v>       0.00000000       0.00000000      10.00000000 </v>
    </varray>
    <i name="volume">     51.60391413 </i>
    <varray name="rec_basis" >
     <v>       0.40966041       0.23651755      -0.00000000 </v>
     <v>       0.00000000       0.47303509       0.00000000 </v>
     <v>       0.00000000      -0.00000000       0.10000000 </v>
    </varray>
   </crystal>
   <varray name="positions" >
    <v>       0.10000000       0.10000000       0.50000000 </v>
    <v>       0.42200000       0.76600000       0.52000000 </v>
   </varray>
  </structure>
  <varray name="primitive_index" >
   <v type="int" >        1 </v>
   <v type="int" >        2 </v>
  </varray>
 </primitive_cell>
 <kpoints>
  <generation param="Monkhorst-Pack">
   <v type="int" name="divisions">       9        9        1 </v>
   <v name="usershift">      0.00000000       0.00000000       0.00000000 </v>
   <v name="genvec1">      0.11111111       0.00000000       0.00000000 </v>
   <v name="genvec2">      0.00000000       0.11111111       0.00000000 </v>
   <v name="genvec3">      0.00000000       0.00000000       1.00000000 </v>
   <v name="shift">      0.00000000       0.00000000       0.00000000 </v>
  </generation>
  <varray name="kpointlist" >
   <v>       0.00000000       0.00000000       0.00000000 </v>
   <v>       0.11111111       0.00000000       0.00000000 </v>
   <v>       0.00000000       0.11111111       0.00000000 </v>
   <v>      -0.11111111       0.11111111       0.00000000 </v>
   <v>       0.22222222       0.00000000       0.00000000 </v>
   <v>       0.00000000       0.22222222       0.00000000 </v>
   <v>      -0.22222222       0.22222222       0.00000000 </v>
   <v>       0.33333333       0.00000000       0.00000000 </v>
   <v>       0.00000000       0.33333333       0.00000000 </v>
   <v>      -0.33333333       0.33333333       0.00000000 </v>
   <v>       0.44444444       0.00000000       0.00000000 </v>
   <v>       0.00000000       0.44444444       0.00000000 </v>
   <v>      -0.44444444       0.44444444       0.00000000 </v>
   <v>       0.11111111       0.11111111       0.00000000 </v>
   <v>      -0.11111111       0.22222222       0.00000000 </v>
   <v>      -0.22222222       0.11111111       0.00000000 </v>
   <v>       0.22222222       0.11111111       0.00000000 </v>
   <v>      -0.11111111       0.33333333       0.00000000 </v>
   <v>      -0.33333333       0.22222222       0.00000000 </v>
   <v>      -0.22222222       0.33333333       0.00000000 </v>
   <v>       0.11111111       0.22222222       0.00000000 </v>
   <v>       0.33333333      -0.11111111       0.00000000 </v>
   <v>       0.33333333       0.11111111       0.00000000 </v>
   <v>      -0.11111111       0.44444444       0.00000000 </v>
   <v>      -0.44444444       0.33333333       0.00000000 </v>
   <v>      -0.33333333       0.44444444       0.00000000 </v>
   <v>       0.11111111       0.33333333       0.00000000 </v>
   <v>       0.44444444      -0.11111111       0.00000000 </v>
   <v>       0.44444444       0.11111111       0.00000000 </v>
   <v>      -0.11111111      -0.44444444       0.00000000 </v>
   <v>       0.44444444       0.44444444       0.00000000 </v>
   <v>       0.22222222       0.22222222       0.00000000 </v>
   <v>      -0.22222222       0.44444444       0.00000000 </v>
   <v>      -0.44444444       0.22222222       0.00000000 </v>
   <v>       0.33333333       0.22222222       0.00000000 </v>
   <v>      -0.22222222      -0.44444444       0.00000000 </v>
   <v>       0.44444444       0.33333333       0.00000000 </v>
   <v>      -0.33333333      -0.44444444       0.00000000 </v>
   <v>       0.22222222       0.33333333       0.00000000 </v>
   <v>      -0.44444444      -0.22222222       0.00000000 </v>
   <v>       0.33333333       0.33333333       0.00000000 </v>
  </varray>
  <varray name="weights" >
   <v>       0.01234568 </v>
   <v>       0.02469136 </v>
   <v>       0.02469136 </v>
   <v>       0.02469136 </v>
   <v>       0.02469136 </v>
   <v>       0.02469136 </v>
   <v>       0.02469136 </v>
   <v>       0.02469136 </v>
   <v>       0.02469136 </v>
   <v>       0.02469136 </v>
   <v>       0.02469136 </v>
   <v>       0.02469136 </v>
   <v>       0.02469136 </v>
   <v>       0.02469136 </v>
   <v>       0.02469136 </v>
   <v>       0.02469136 </v>
   <v>       0.02469136 </v>
   <v>       0.02469136 </v>
   <v>       0.02469136 </v>
   <v>       0.02469136 </v>
   <v>       0.02469136 </v>
   <v>       0.02469136 </v>
   <v>       0.02469136 </v>
   <v>       0.02469136 </v>
   <v>       0.02469136 </v>
   <v>       0.02469136 </v>
   <v>       0.02469136 </v>
   <v>       0.02469136 </v>
   <v>       0.02469136 </v>
   <v>       0.02469136 </v>
   <v>       0.02469136 </v>
   <v>       0.02469136 </v>
   <v>       0.02469136 </v>
   <v>       0.02469136 </v>
   <v>       0.02469136 </v>
   <v>       0.02469136 </v>
   <v>       0.02469136 </v>
   <v>       0.02469136 </v>
   <v>       0.02469136 </v>
   <v>       0.02469136 </v>
   <v>       0.02469136 </v>
  </varray>
 </kpoints>
 <parameters>
  <separator name="general" >
   <i type="string" name="SYSTEM">unknown system</i>
   <i type="logical" name="LCOMPAT"> F  </i>
  </separator>
  <separator name="electronic" >
   <i type="string" name="PREC">normal</i>
   <i name="ENMAX">    400.00000000</i>
   <i name="ENAUG">    439.24300000</i>
   <i name="EDIFF">      0.00010000</i>
   <i type="int" name="IALGO">    38</i>
   <i type="int" name="IWAVPR">    12</i>
   <i type="int" name="NBANDS">     8</i>
   <i type="int" name="NBANDSLOW">    -1</i>
   <i type="int" name="NBANDSHIGH">    -1</i>
   <i name="NELECT">      8.00000000</i>
   <i type="int" name="TURBO">     0</i>
   <i type="int" name="IRESTART">     0</i>
   <i type="int" name="NREBOOT">     0</i>
   <i type="int" name="NMIN">     0</i>
   <i name="EREF">      0.00000000</i>
   <separator name="electronic smearing" >
    <i type="int" name="ISMEAR">     1</i>
    <i name="SIGMA">      0.20000000</i>
    <i name="KSPACING">      0.50000000</i>
    <i type="logical" name="KGAMMA"> T  </i>
    <i type="logical" name="KBLOWUP"> T  </i>
   </separator>
   <separator name="electronic projectors" >
    <i type="logical" name="LREAL"> T  </i>
    <v name="ROPT">     -0.00050000</v>
    <i type="int" name="LMAXPAW">  -100</i>
    <i type="int" name="LMAXMIX">     2</i>
    <i type="logical" name="NLSPLINE"> F  </i>
   </separator>
   <separator name="electronic startup" >
    <i type="int" name="ISTART">     0</i>
    <i type="int" name="ICHARG">     2</i>
    <i type="int" name="INIWAV">     1</i>
   </separator>
   <separator name="electronic spin" >
    <i type="int" name="ISPIN">     1</i>
    <i type="logical" name="LNONCOLLINEAR"> F  </i>
    <v name="MAGMOM">      1.00000000      1.00000000</v>
    <i name="NUPDOWN">     -1.00000000</i>
    <i type="logical" name="LSORBIT"> F  </i>
    <v name="SAXIS">      0.00000000      0.00000000      1.00000000</v>
    <i type="logical" name="LSPIRAL"> F  </i>
    <v name="QSPIRAL">      0.00000000      0.00000000      0.00000000</v>
    <i type="logical" name="LZEROZ"> F  </i>
   </separator>
   <separator name="electronic exchange-correlation" >
    <i type="logical" name="LASPH"> F  </i>
   </separator>
   <separator name="electronic convergence" >
    <i type="int" name="NELM">    60</i>
    <i type="int" name="NELMDL">    -5</i>
    <i type="int" name="NELMIN">     2</i>
    <i name="ENINI">    400.00000000</i>
    <separator name="electronic convergence detail" >
     <i type="logical" name="LDIAG"> T  </i>
     <i type="logical" name="LSUBROT"> F  </i>
     <i name="WEIMIN">      0.00100000</i>
     <i name="EBREAK">      0.00000313</i>
     <i name="DEPER">      0.30000000</i>
     <i type="int" name="NRMM">     4</i>
     <i name="TIME">      0.40000000</i>
    </separator>
   </separator>
   <separator name="electronic mixer" >
    <i name="AMIX">      0.40000000</i>
    <i name="BMIX">      1.00000000</i>
    <i name="AMIN">      0.10000000</i>
    <i name="AMIX_MAG">      1.60000000</i>
    <i name="BMIX_MAG">      1.00000000</i>
    <separator name="electronic mixer details" >
     <i type="int" name="IMIX">     4</i>
     <i type="logical" name="MIXFIRST"> F  </i>
     <i type="int" name="MAXMIX">   -45</i>
     <i name="WC">    100.00000000</i>
     <i type="int" name="INIMIX">     1</i>
     <i type="int" name="MIXPRE">     1</i>
     <i type="int" name="MREMOVE">     5</i>
    </separator>
   </separator>
   <separator name="electronic dipolcorrection" >
    <i type="logical" name="LDIPOL"> F  </i>
    <i type="logical" name="LMONO"> F  </i>
    <i type="int" name="IDIPOL">     0</i>
    <i name="EPSILON">      1.00000000</i>
    <v name="DIPOL">   -100.00000000   -100.00000000   -100.00000000</v>
    <i name="EFIELD">      0.00000000</i>
    <i type="logical" name="LVACPOTAV"> F  </i>
   </separator>
  </separator>
  <separator name="grids" >
   <i type="int" name="NGX">    12</i>
   <i type="int" name="NGY">    12</i>
   <i type="int" name="NGZ">    50</i>
   <i type="int" name="NGXF">    24</i>
   <i type="int" name="NGYF">    24</i>
   <i type="int" name="NGZF">   100</i>
   <i type="logical" name="ADDGRID"> F  </i>
  </separator>
  <separator name="ionic" >
   <i type="int" name="NSW">   100</i>
   <i type="int" name="IBRION">     0</i>
   <i type="int" name="MDALGO">     0</i>
   <i type="int" name="ISIF">     0</i>
   <i name="PSTRESS">      0.00000000</i>
   <i name="EDIFFG">      0.00100000</i>
   <i type="int" name="NFREE">     0</i>
   <i name="POTIM">      0.10000000</i>
   <i name="SMASS">     -3.00000000</i>
   <i name="SCALEE">      1.00000000</i>
  </separator>
  <separator name="ionic md" >
   <i name="TEBEG">    300.00000000</i>
   <i name="TEEND">    300.00000000</i>
   <i type="int" name="NBLOCK">     1</i>
   <i type="int" name="KBLOCK">   100</i>
   <i type="int" name="NPACO">   256</i>
   <i name="APACO">     10.00000000</i>
  </separator>
  <separator name="symmetry" >
   <i type="int" name="ISYM">     2</i>
   <i name="SYMPREC">      0.00001000</i>
  </separator>
  <separator name="dos" >
   <i type="int" name="LORBIT">     0</i>
   <v name="RWIGS">     -1.00000000</v>
   <i type="int" name="NEDOS">   301</i>
   <i name="EMIN">     10.00000000</i>
   <i name="EMAX">    -10.00000000</i>
   <i name="EFERMI">      0.00000000</i>
  </separator>
  <separator name="writing" >
   <i type="int" name="NWRITE">     2</i>
   <i type="logical" name="LWAVE"> F  </i>
   <i type="logical" name="LDOWNSAMPLE"> F  </i>
   <i type="logical" name="LCHARG"> F  </i>
   <i type="logical" name="LPARD"> F  </i>
   <i type="logical" name="LVTOT"> F  </i>
   <i type="logical" name="LVHAR"> F  </i>
   <i type="logical" name="LELF"> F  </i>
   <i type="logical" name="LOPTICS"> F  </i>
   <v name="STM">      0.00000000      0.00000000      0.00000000      0.00000000      0.00000000      0.00000000      0.00000000</v>
  </separator>
  <separator name="performance" >
   <i type="int" name="NPAR">     1</i>
   <i type="int" name="NSIM">     4</i>
   <i type="int" name="NBLK">    -1</i>
   <i type="logical" name="LPLANE"> T  </i>
   <i type="logical" name="LSCALAPACK"> T  </i>
   <i type="logical" name="LSCAAWARE"> F  </i>
   <i type="logical" name="LSCALU"> F  </i>
   <i type="logical" name="LASYNC"> F  </i>
   <i type="logical" name="LORBITALREAL"> F  </i>
  </separator>
  <separator name="miscellaneous" >
   <i type="int" name="IDIOT">     3</i>
   <i type="int" name="PHON_NSTRUCT">    -1</i>
   <i type="logical" name="LMUSIC"> F  </i>
   <v name="POMASS">     12.01100000</v>
   <v name="DARWINR">      0.00000000</v>
   <v name="DARWINV">      1.00000000</v>
   <i type="logical" name="LCORR"> T  </i>
  </separator>
  <i type="logical" name="GGA_COMPAT"> T  </i>
  <i type="logical" name="LBERRY"> F  </i>
  <i type="int" name="ICORELEVEL">     0</i>
  <i type="logical" name="LDAU"> F  </i>
  <i type="int" name="I_CONSTRAINED_M">     0</i>
  <separator name="electronic exchange-correlation" >
   <i type="string" name="GGA    ">PE</i>
   <i type="string" name="XC_C">1</i>
   <i type="int" name="VOSKOWN">     0</i>
   <i type="logical" name="LHFCALC"> F  </i>
   <i type="string" name="PRECFOCK"></i>
   <i type="logical" name="LSYMGRAD"> F  </i>
   <i type="logical" name="LHFONE"> F  </i>
   <i type="logical" name="LRHFCALC"> F  </i>
   <i type="logical" name="LTHOMAS"> F  </i>
   <i type="logical" name="LMODELHF"> F  </i>
   <i type="logical" name="LFOCKACE"> F  </i>
   <i name="ENCUT4O">     -1.00000000</i>
   <i type="int" name="EXXOEP">     0</i>
   <i type="int" name="FOURORBIT">     0</i>
   <i name="AEXX">      0.00000000</i>
   <i name="HFALPHA">      0.00000000</i>
   <i name="MCALPHA">      0.00000000</i>
   <i name="ALDAX">      1.00000000</i>
   <i name="AGGAX">      1.00000000</i>
   <i name="AMGGAX">      1.00000000</i>
   <i name="ALDAC">      1.00000000</i>
   <i name="AGGAC">      1.00000000</i>
   <i name="AMGGAC">      1.00000000</i>
   <i type="int" name="NKREDX">     1</i>
   <i type="int" name="NKREDY">     1</i>
   <i type="int" name="NKREDZ">     1</i>
   <i type="logical" name="SHIFTRED"> F  </i>
   <i type="logical" name="ODDONLY"> F  </i>
   <i type="logical" name="EVENONLY"> F  </i>
   <i type="int" name="LMAXFOCK">     0</i>
   <i type="int" name="NMAXFOCKAE">     0</i>
   <i type="logical" name="LFOCKAEDFT"> F  </i>
   <i name="HFSCREEN">      0.00000000</i>
   <i name="HFSCREENC">      0.00000000</i>
   <i type="int" name="NBANDSGWLOW">     0</i>
  </separator>
  <separator name="vdW DFT" >
   <i type="logical" name="LUSE_VDW"> F  </i>
   <i type="int" name="IVDW_NL">    -1</i>
   <i type="logical" name="LSPIN_VDW"> F  </i>
   <i name="ZAB_VDW">     -0.84910000</i>
   <i name="GAMMA_VDW">      1.39626340</i>
   <i name="ALPHA_VDW">      0.00000000</i>
   <i name="PARAM1">      0.12340000</i>
   <i name="PARAM2">      1.00000000</i>
   <i name="BPARAM">      6.30000000</i>
   <i name="CPARAM">      0.00930000</i>
  </separator>
  <separator name="model GW" >
   <i type="int" name="MODEL_GW">     0</i>
   <i name="MODEL_EPS0">     15.48117424</i>
   <i name="MODEL_ALPHA">      1.00000000</i>
  </separator>
  <separator name="linear response parameters" >
   <i type="logical" name="LEPSILON"> F  </i>
   <i type="logical" name="LRPA"> F  </i>
   <i type="logical" name="LNABLA"> F  </i>
   <i type="logical" name="LVEL"> F  </i>
   <i name="CSHIFT">      0.10000000</i>
   <i name="OMEGAMAX">     -1.00000000</i>
   <i name="DEG_THRESHOLD">      0.00200000</i>
   <i name="RTIME">     -0.10000000</i>
   <i name="WPLASMAI">      0.00000000</i>
   <v name="DFIELD">      0.00000000      0.00000000      0.00000000</v>
   <v name="WPLASMA">      0.00000000      0.00000000      0.00000000      0.00000000      0.00000000      0.00000000      0.00000000      0.00000000      0.00000000</v>
  </separator>
  <separator name="orbital magnetization" >
   <i type="logical" name="NUCIND"> F  </i>
   <v name="MAGPOS">      0.00000000      0.00000000      0.00000000</v>
   <i type="logical" name="LNICSALL"> T  </i>
   <i type="logical" name="ORBITALMAG"> F  </i>
   <i type="logical" name="LMAGBLOCH"> F  </i>
   <i type="logical" name="LCHIMAG"> F  </i>
   <i type="logical" name="LGAUGE"> T  </i>
   <i type="int" name="MAGATOM">     0</i>
   <v name="MAGDIPOL">      0.00000000      0.00000000      0.00000000</v>
   <v name="AVECCONST">      0.00000000      0.00000000      0.00000000</v>
  </separator>
  <separator name="response functions" >
   <i type="logical" name="LALL_IN_ONE"> F  </i>
   <i type="int" name="IALL_IN_ONE">    -1</i>
   <i type="int" name="NBANDS_WAVE">    -1</i>
   <i type="logical" name="LFINITE_TEMPERATURE"> F  </i>
   <i type="logical" name="LADDER"> F  </i>
   <i type="logical" name="LRPAFORCE"> F  </i>
   <i type="logical" name="LFXC"> F  </i>
   <i type="logical" name="LHARTREE"> T  </i>
   <i type="int" name="IBSE">     0</i>
   <v type="int" name="KPOINT">    -1     0     0     0</v>
   <i type="logical" name="LTCTC"> F  </i>
   <i type="logical" name="LTCTE"> F  </i>
   <i type="logical" name="LTETE"> F  </i>
   <i type="logical" name="LTRIPLET"> F  </i>
   <i type="logical" name="LFXCEPS"> F  </i>
   <i type="logical" name="LFXHEG"> F  </i>
   <i type="int" name="NATURALO">     2</i>
   <i type="logical" name="LHOLEGF"> F  </i>
   <i type="logical" name="L2ORDER"> F  </i>
   <i type="logical" name="LDMP1"> F  </i>
   <i type="logical" name="LMP2LT"> F  </i>
   <i type="logical" name="LSMP2LT"> F  </i>
   <i type="logical" name="LGWLF"> F  </i>
   <i name="ENCUTGW">     -1.60000002</i>
   <i name="ENCUTGWSOFT">     -1.60000002</i>
   <i name="ENCUTLF">     -1.00000000</i>
   <i type="logical" name="ESF_SPLINES"> F  </i>
   <i name="ESF_CONV">      0.01000000</i>
   <i type="int" name="ESF_NINTER">    15</i>
   <i type="int" name="LMAXMP2">    -1</i>
   <i name="SCISSOR">      0.00000000</i>
   <i type="int" name="NOMEGA">     0</i>
   <i type="int" name="NOMEGAR">     0</i>
   <i type="int" name="NBANDSGW">    -1</i>
   <i type="int" name="NBANDSO">    -1</i>
   <i type="int" name="NBANDSV">    -1</i>
   <i type="int" name="NELMGW">     1</i>
   <i type="int" name="NELMHF">     1</i>
   <i type="int" name="DIM">     3</i>
   <i type="int" name="IESPILON">     4</i>
   <i type="int" name="ANTIRES">     0</i>
   <i name="OMEGAMAX">    -30.00000000</i>
   <i name="OMEGAMIN">    -30.00000000</i>
   <i name="OMEGATL">   -200.00000000</i>
   <i type="int" name="OMEGAGRID">     0</i>
   <i name="CSHIFT">     -0.10000000</i>
   <i type="logical" name="LSELFENERGY"> F  </i>
   <i type="logical" name="LSPECTRAL"> F  </i>
   <i type="logical" name="LSPECTRALGW"> F  </i>
   <i type="logical" name="LSINGLES"> F  </i>
   <i type="logical" name="LFERMIGW"> F  </i>
   <i type="logical" name="ODDONLYGW"> F  </i>
   <i type="logical" name="EVENONLYGW"> F  </i>
   <i type="int" name="NKREDLFX">     1</i>
   <i type="int" name="NKREDLFY">     1</i>
   <i type="int" name="NKREDLFZ">     1</i>
   <i type="int" name="MAXMEM">  2800</i>
   <i type="int" name="TELESCOPE">     0</i>
   <i type="int" name="NTAUPAR">    -1</i>
   <i type="int" name="NOMEGAPAR">    -1</i>
   <i name="DAMP_NEWTON">      0.80000001</i>
   <i name="LAMBDA">      1.00000000</i>
  </separator>
  <separator name="External order field" >
   <i name="OFIELD_KAPPA">      0.00000000</i>
   <v name="OFIELD_K">      0.00000000      0.00000000      0.00000000</v>
   <i name="OFIELD_Q6_NEAR">      0.00000000</i>
   <i name="OFIELD_Q6_FAR">      0.00000000</i>
   <i name="OFIELD_A">      0.00000000</i>
  </separator>
  <separator name="optional k-points parameters" >
   <i type="int" name="KPOINTS_OPT_MODE">     1</i>
   <i type="logical" name="LKPOINTS_OPT"> F  </i>
  </separator>
 </parameters>
 <atominfo>
  <atoms>       2 </atoms>
  <types>       1 </types>
  <array name="atoms" >
   <dimension dim="1">ion</dimension>
   <field type="string">element</field>
   <field type="int">atomtype</field>
   <set>
    <rc><c>C </c><c>   1</c></rc>
    <rc><c>C </c><c>   1</c></rc>
   </set>
  </array>
  <array name="atomtypes" >
   <dimension dim="1">type</dimension>
   <field type="int">atomspertype</field>
   <field type="string">element</field>
   <field>mass</field>
   <field>valence</field>
   <field type="string">pseudopotential</field>
   <set>
    <rc><c>   2</c><c>C </c><c>     12.01100000</c><c>      4.00000000</c><c>  PAW_PBE C_s 06Sep2000                 </c></rc>
   </set>
  </array>
 </atominfo>
 <structure name="initialpos" >
  <crystal>
   <varray name="basis" >
    <v>       2.44104624       0.00000000       0.00000000 </v>
    <v>      -1.22052312       2.11400806       0.00000000 </v>
    <v>       0.00000000       0.00000000      10.00000000 </v>
   </varray>
   <i name="volume">     51.60391413 </i>
   <varray name="rec_basis" >
    <v>       0.40966041       0.23651755      -0.00000000 </v>
    <v>       0.00000000       0.47303509       0.00000000 </v>
    <v>       0.00000000      -0.00000000       0.10000000 </v>
   </varray>
  </crystal>
  <varray name="positions" >
   <v>       0.10000000       0.10000000       0.50000000 </v>
   <v>       0.42200000       0.76600000       0.52000000 </v>
  </varray>
  <varray name="velocities" >
   <v>       0.00000000       0.00000000       0.00000000 </v>
   <v>       0.00000000       0.00000000       0.00000000 </v>
  </varray>
 </structure>
 <calculation>
  <scstep>
   <time name="dav">    7.46    1.24</time>
   <time name="total">    7.56    1.26</time>
   <energy>
    <i name="alphaZ">      3.71250722 </i>
    <i name="ewald">    385.77181787 </i>
    <i name="hartreedc">   -618.25331349 </i>
    <i name="XCdc">     27.64530584 </i>
    <i name="pawpsdc">    216.69781520 </i>
    <i name="pawaedc">   -218.18290364 </i>
    <i name="eentropy">     -0.00187620 </i>
    <i name="bandstr">    -40.22763254 </i>
    <i name="atom">    294.30283995 </i>
    <i name="e_fr_energy">     51.46456021 </i>
    <i name="e_wo_entrp">     51.46643641 </i>
    <i name="e_0_energy">     51.46518561 </i>
   </energy>
  </scstep>
  <scstep>
   <time name="dav">    8.97    1.49</time>
   <time name="total">    8.97    1.49</time>
   <energy>
    <i name="e_fr_energy">    -16.73263020 </i>
    <i name="e_wo_entrp">    -16.73303226 </i>
    <i name="e_0_energy">    -16.73276422 </i>
   </energy>
  </scstep>
  <scstep>
   <time name="dav">   11.28    1.88</time>
   <time name="total">   11.30    1.88</time>
   <energy>
    <i name="e_fr_energy">    -19.34580706 </i>
    <i name="e_wo_entrp">    -19.34666343 </i>
    <i name="e_0_energy">    -19.34609252 </i>
   </energy>
  </scstep>
  <scstep>
   <time name="dav">   10.41    1.74</time>
   <time name="total">   10.42    1.74</time>
   <energy>
    <i name="e_fr_energy">    -19.36376287 </i>
    <i name="e_wo_entrp">    -19.36461834 </i>
    <i name="e_0_energy">    -19.36404802 </i>
   </energy>
  </scstep>
  <scstep>
   <time name="dav">   11.02    1.84</time>
   <time name="total">   11.45    1.91</time>
   <energy>
    <i name="e_fr_energy">    -19.36379164 </i>
    <i name="e_wo_entrp">    -19.36464712 </i>
    <i name="e_0_energy">    -19.36407680 </i>
   </energy>
  </scstep>
  <scstep>
   <time name="dav">   11.98    2.00</time>
   <time name="total">   12.50    2.08</time>
   <energy>
    <i name="e_fr_energy">    -18.41122747 </i>
    <i name="e_wo_entrp">    -18.41190789 </i>
    <i name="e_0_energy">    -18.41145428 </i>
   </energy>
  </scstep>
  <scstep>
   <time name="dav">   12.77    2.13</time>
   <time name="total">   13.29    2.22</time>
   <energy>
    <i name="e_fr_energy">    -18.09260268 </i>
    <i name="e_wo_entrp">    -18.09296810 </i>
    <i name="e_0_energy">    -18.09272449 </i>
   </energy>
  </scstep>
  <scstep>
   <time name="dav">    9.51    1.59</time>
   <time name="total">   10.03    1.67</time>
   <energy>
    <i name="e_fr_energy">    -18.02549874 </i>
    <i name="e_wo_entrp">    -18.02600026 </i>
    <i name="e_0_energy">    -18.02566591 </i>
   </energy>
  </scstep>
  <scstep>
   <time name="dav">   10.12    1.69</time>
   <time name="total">   10.67    1.78</time>
   <energy>
    <i name="e_fr_energy">    -18.02362631 </i>
    <i name="e_wo_entrp">    -18.02412275 </i>
    <i name="e_0_energy">    -18.02379179 </i>
   </energy>
  </scstep>
  <scstep>
   <time name="dav">    9.81    1.64</time>
   <time name="total">   10.34    1.73</time>
   <energy>
    <i name="e_fr_energy">    -18.02199335 </i>
    <i name="e_wo_entrp">    -18.02248352 </i>
    <i name="e_0_energy">    -18.02215674 </i>
   </energy>
  </scstep>
  <scstep>
   <time name="dav">    7.61    1.27</time>
   <time name="total">    8.16    1.36</time>
   <energy>
    <i name="e_fr_energy">    -18.01939491 </i>
    <i name="e_wo_entrp">    -18.01987562 </i>
    <i name="e_0_energy">    -18.01955515 </i>
   </energy>
  </scstep>
  <scstep>
   <time name="dav">    8.68    1.45</time>
   <time name="total">    9.21    1.53</time>
   <energy>
    <i name="e_fr_energy">    -18.02165814 </i>
    <i name="e_wo_entrp">    -18.02214330 </i>
    <i name="e_0_energy">    -18.02181986 </i>
   </energy>
  </scstep>
  <scstep>
   <time name="dav">    7.84    1.31</time>
   <time name="total">    8.35    1.40</time>
   <energy>
    <i name="e_fr_energy">    -18.02180119 </i>
    <i name="e_wo_entrp">    -18.02228674 </i>
    <i name="e_0_energy">    -18.02196304 </i>
   </energy>
  </scstep>
  <scstep>
   <time name="dav">    7.58    1.27</time>
   <time name="total">    8.15    1.36</time>
   <energy>
    <i name="e_fr_energy">    -18.02218381 </i>
    <i name="e_wo_entrp">    -18.02266794 </i>
    <i name="e_0_energy">    -18.02234518 </i>
   </energy>
  </scstep>
  <scstep>
   <time name="dav">    9.26    1.55</time>
   <time name="total">    9.36    1.56</time>
   <energy>
    <i name="alphaZ">      3.71250722 </i>
    <i name="ewald">    385.77181787 </i>
    <i name="hartreedc">   -649.41243926 </i>
    <i name="XCdc">     28.83240656 </i>
    <i name="pawpsdc">   3211.66046692 </i>
    <i name="pawaedc">  -3213.73129188 </i>
    <i name="eentropy">      0.00048377 </i>
    <i name="bandstr">    -79.15899900 </i>
    <i name="atom">    294.30283995 </i>
    <i name="e_fr_energy">    -18.02220785 </i>
    <i name="e_wo_entrp">    -18.02269162 </i>
    <i name="e_0_energy">    -18.02236910 </i>
   </energy>
  </scstep>
  <structure>
   <crystal>
    <varray name="basis" >
     <v>       2.44104624       0.00000000       0.00000000 </v>
     <v>      -1.22052312       2.11400806       0.00000000 </v>
     <v>       0.00000000       0.00000000      10.00000000 </v>
    </varray>
    <i name="volume">     51.60391413 </i>
    <varray name="rec_basis" >
     <v>       0.40966041       0.23651755      -0.00000000 </v>
     <v>       0.00000000       0.47303509       0.00000000 </v>
     <v>       0.00000000      -0.00000000       0.10000000 </v>
    </varray>
   </crystal>
   <varray name="positions" >
    <v>       0.10000000       0.10000000       0.50000000 </v>
    <v>       0.42200000       0.76600000       0.52000000 </v>
   </varray>
  </structure>
  <varray name="forces" >
   <v>      -1.22759467      -0.02284569       3.34121969 </v>
   <v>       1.22759467       0.02284569      -3.34121969 </v>
  </varray>
  <energy>
   <i name="e_fr_energy">    -18.02220785 </i>
   <i name="e_wo_entrp">    -18.02269162 </i>
   <i name="e_0_energy">    -18.02236910 </i>
   <i name="kinetic">      0.00002545 </i>
   <i name="lattice kinetic">      0.00000000 </i>
   <i name="nosepot">      0.00000000 </i>
   <i name="nosekinetic">      0.00000000 </i>
   <i name="total">    -18.02218240 </i>
  </energy>
  <time name="totalsc">  153.50   25.59</time>
 </calculation>
 <calculation>
  <scstep>
   <time name="dav">    9.38    1.56</time>
   <time name="total">    9.91    1.65</time>
   <energy>
    <i name="alphaZ">      3.71250722 </i>
    <i name="ewald">    385.77498100 </i>
    <i name="hartreedc">   -649.41676285 </i>
    <i name="XCdc">     28.83252694 </i>
    <i name="pawpsdc">   3211.48852006 </i>
    <i name="pawaedc">  -3213.55934173 </i>
    <i name="eentropy">      0.00048179 </i>
    <i name="bandstr">    -79.15816741 </i>
    <i name="atom">    294.30283995 </i>
    <i name="e_fr_energy">    -18.02241503 </i>
    <i name="e_wo_entrp">    -18.02289682 </i>
    <i name="e_0_energy">    -18.02257562 </i>
   </energy>
  </scstep>
  <scstep>
   <time name="dav">    9.89    1.65</time>
   <time name="total">    9.98    1.66</time>
   <energy>
    <i name="alphaZ">      3.71250722 </i>
    <i name="ewald">    385.77498100 </i>
    <i name="hartreedc">   -649.41705837 </i>
    <i name="XCdc">     28.83254167 </i>
    <i name="pawpsdc">   3211.57866355 </i>
    <i name="pawaedc">  -3213.64949467 </i>
    <i name="eentropy">      0.00048190 </i>
    <i name="bandstr">    -79.15787777 </i>
    <i name="atom">    294.30283995 </i>
    <i name="e_fr_energy">    -18.02241551 </i>
    <i name="e_wo_entrp">    -18.02289741 </i>
    <i name="e_0_energy">    -18.02257614 </i>
   </energy>
  </scstep>
  <structure>
   <crystal>
    <varray name="basis" >
     <v>       2.44104624       0.00000000       0.00000000 </v>
     <v>      -1.22052312       2.11400806       0.00000000 </v>
     <v>       0.00000000       0.00000000      10.00000000 </v>
    </varray>
    <i name="volume">     51.60391413 </i>
    <varray name="rec_basis" >
     <v>       0.40966041       0.23651755      -0.00000000 </v>
     <v>       0.00000000       0.47303509       0.00000000 </v>
     <v>       0.00000000      -0.00000000       0.10000000 </v>
    </varray>
   </crystal>
   <varray name="positions" >
    <v>       0.09999592       0.09999991       0.50000268 </v>
    <v>       0.42200408       0.76600009       0.51999732 </v>
   </varray>
  </structure>
  <varray name="forces" >
   <v>      -1.22650952      -0.02291526       3.34025866 </v>
   <v>       1.22650952       0.02291526      -3.34025866 </v>
  </varray>
  <energy>
   <i name="e_fr_energy">    -18.02241551 </i>
   <i name="e_wo_entrp">    -18.02289741 </i>
   <i name="e_0_energy">    -18.02257614 </i>
   <i name="kinetic">      0.00022897 </i>
   <i name="lattice kinetic">      0.00000000 </i>
   <i name="nosepot">      0.00000000 </i>
   <i name="nosekinetic">      0.00000000 </i>
   <i name="total">    -18.02218653 </i>
  </energy>
  <time name="totalsc">   23.71    3.95</time>
 </calculation>
 <calculation>
  <scstep>
   <time name="dav">   10.57    1.77</time>
   <time name="total">   11.18    1.87</time>
   <energy>
    <i name="alphaZ">      3.71250722 </i>
    <i name="ewald">    385.78130408 </i>
    <i name="hartreedc">   -649.42237945 </i>
    <i name="XCdc">     28.83267231 </i>
    <i name="pawpsdc">   3211.74290454 </i>
    <i name="pawaedc">  -3213.81375000 </i>
    <i name="eentropy">      0.00047735 </i>
    <i name="bandstr">    -79.15939885 </i>
    <i name="atom">    294.30283995 </i>
    <i name="e_fr_energy">    -18.02282284 </i>
    <i name="e_wo_entrp">    -18.02330020 </i>
    <i name="e_0_energy">    -18.02298196 </i>
   </energy>
  </scstep>
  <scstep>
   <time name="dav">    7.43    1.24</time>
   <time name="total">    7.55    1.27</time>
   <energy>
    <i name="alphaZ">      3.71250722 </i>
    <i name="ewald">    385.78130408 </i>
    <i name="hartreedc">   -649.42264169 </i>
    <i name="XCdc">     28.83268618 </i>
    <i name="pawpsdc">   3211.80531829 </i>
    <i name="pawaedc">  -3213.87617510 </i>
    <i name="eentropy">      0.00047750 </i>
    <i name="bandstr">    -79.15913930 </i>
    <i name="atom">    294.30283995 </i>
    <i name="e_fr_energy">    -18.02282286 </i>
    <i name="e_wo_entrp">    -18.02330036 </i>
    <i name="e_0_energy">    -18.02298202 </i>
   </energy>
  </scstep>
  <structure>
   <crystal>
    <varray name="basis" >
     <v>       2.44104624       0.00000000       0.00000000 </v>
     <v>      -1.22052312       2.11400806       0.00000000 </v>
     <v>       0.00000000       0.00000000      10.00000000 </v>
    </varray>
    <i name="volume">     51.60391413 </i>
    <varray name="rec_basis" >
     <v>       0.40966041       0.23651755      -0.00000000 </v>
     <v>       0.00000000       0.47303509       0.00000000 </v>
     <v>       0.00000000      -0.00000000       0.10000000 </v>
    </varray>
   </crystal>
   <varray name="positions" >
    <v>       0.09998775       0.09999974       0.50000805 </v>
    <v>       0.42201225       0.76600026       0.51999195 </v>
   </varray>
  </structure>
  <varray name="forces" >
   <v>      -1.22485081      -0.02281389       3.33849147 </v>
   <v>       1.22485081       0.02281389      -3.33849147 </v>
  </varray>
  <energy>
   <i name="e_fr_energy">    -18.02282286 </i>
   <i name="e_wo_entrp">    -18.02330036 </i>
   <i name="e_0_energy">    -18.02298202 </i>
   <i name="kinetic">      0.00063575 </i>
   <i name="lattice kinetic">      0.00000000 </i>
   <i name="nosepot">      0.00000000 </i>
   <i name="nosekinetic">      0.00000000 </i>
   <i name="total">    -18.02218711 </i>
  </energy>
  <time name="totalsc">   22.57    3.77</time>
 </calculation>
 <calculation>
  <scstep>
   <time name="dav">    6.57    1.10</time>
   <time name="total">    7.14    1.19</time>
   <energy>
    <i name="alphaZ">      3.71250722 </i>
    <i name="ewald">    385.79078091 </i>
    <i name="hartreedc">   -649.43029485 </i>
    <i name="XCdc">     28.83286650 </i>
    <i name="pawpsdc">   3211.90867875 </i>
    <i name="pawaedc">  -3213.97954980 </i>
    <i name="eentropy">      0.00047060 </i>
    <i name="bandstr">    -79.16173166 </i>
    <i name="atom">    294.30283995 </i>
    <i name="e_fr_energy">    -18.02343237 </i>
    <i name="e_wo_entrp">    -18.02390297 </i>
    <i name="e_0_energy">    -18.02358923 </i>
   </energy>
  </scstep>
  <scstep>
   <time name="dav">    4.74    0.79</time>
   <time name="total">    4.86    0.81</time>
   <energy>
    <i name="alphaZ">      3.71250722 </i>
    <i name="ewald">    385.79078091 </i>
    <i name="hartreedc">   -649.43067860 </i>
    <i name="XCdc">     28.83288722 </i>
    <i name="pawpsdc">   3212.00716857 </i>
    <i name="pawaedc">  -3214.07805688 </i>
    <i name="eentropy">      0.00047079 </i>
    <i name="bandstr">    -79.16135160 </i>
    <i name="atom">    294.30283995 </i>
    <i name="e_fr_energy">    -18.02343240 </i>
    <i name="e_wo_entrp">    -18.02390320 </i>
    <i name="e_0_energy">    -18.02358934 </i>
   </energy>
  </scstep>
  <structure>
   <crystal>
    <varray name="basis" >
     <v>       2.44104624       0.00000000       0.00000000 </v>
     <v>      -1.22052312       2.11400806       0.00000000 </v>
     <v>       0.00000000       0.00000000      10.00000000 </v>
    </varray>
    <i name="volume">     51.60391413 </i>
    <varray name="rec_basis" >
     <v>       0.40966041       0.23651755      -0.00000000 </v>
     <v>       0.00000000       0.47303509       0.00000000 </v>
     <v>       0.00000000      -0.00000000       0.10000000 </v>
    </varray>
   </crystal>
   <varray name="positions" >
    <v>       0.09997552       0.09999948       0.50001610 </v>
    <v>       0.42202448       0.76600052       0.51998390 </v>
   </varray>
  </structure>
  <varray name="forces" >
   <v>      -1.22155481      -0.02297855       3.33532135 </v>
   <v>       1.22155481       0.02297855      -3.33532135 </v>
  </varray>
  <energy>
   <i name="e_fr_energy">    -18.02343240 </i>
   <i name="e_wo_entrp">    -18.02390320 </i>
   <i name="e_0_energy">    -18.02358934 </i>
   <i name="kinetic">      0.00124520 </i>
   <i name="lattice kinetic">      0.00000000 </i>
   <i name="nosepot">      0.00000000 </i>
   <i name="nosekinetic">      0.00000000 </i>
   <i name="total">    -18.02218721 </i>
  </energy>
  <time name="totalsc">   15.77    2.63</time>
 </calculation>
 <calculation>
  <scstep>
   <time name="dav">    4.81    0.80</time>
   <time name="total">    5.38    0.90</time>
   <energy>
    <i name="alphaZ">      3.71250722 </i>
    <i name="ewald">    385.80340173 </i>
    <i name="hartreedc">   -649.44073925 </i>
    <i name="XCdc">     28.83312162 </i>
    <i name="pawpsdc">   3212.10224286 </i>
    <i name="pawaedc">  -3214.17314453 </i>
    <i name="eentropy">      0.00046147 </i>
    <i name="bandstr">    -79.16493473 </i>
    <i name="atom">    294.30283995 </i>
    <i name="e_fr_energy">    -18.02424367 </i>
    <i name="e_wo_entrp">    -18.02470514 </i>
    <i name="e_0_energy">    -18.02439750 </i>
   </energy>
  </scstep>
  <scstep>
   <time name="dav">    4.78    0.80</time>
   <time name="total">    4.90    0.82</time>
   <energy>
    <i name="alphaZ">      3.71250722 </i>
    <i name="ewald">    385.80340173 </i>
    <i name="hartreedc">   -649.44129137 </i>
    <i name="XCdc">     28.83315061 </i>
    <i name="pawpsdc">   3212.30927056 </i>
    <i name="pawaedc">  -3214.38019373 </i>
    <i name="eentropy">      0.00046177 </i>
    <i name="bandstr">    -79.16439054 </i>
    <i name="atom">    294.30283995 </i>
    <i name="e_fr_energy">    -18.02424380 </i>
    <i name="e_wo_entrp">    -18.02470558 </i>
    <i name="e_0_energy">    -18.02439773 </i>
   </energy>
  </scstep>
  <structure>
   <crystal>
    <varray name="basis" >
     <v>       2.44104624       0.00000000       0.00000000 </v>
     <v>      -1.22052312       2.11400806       0.00000000 </v>
     <v>       0.00000000       0.00000000      10.00000000 </v>
    </varray>
    <i name="volume">     51.60391413 </i>
    <varray name="rec_basis" >
     <v>       0.40966041       0.23651755      -0.00000000 </v>
     <v>       0.00000000       0.47303509       0.00000000 </v>
     <v>       0.00000000      -0.00000000       0.10000000 </v>
    </varray>
   </crystal>
   <varray name="positions" >
    <v>       0.09995922       0.09999913       0.50002683 </v>
    <v>       0.42204078       0.76600087       0.51997317 </v>
   </varray>
  </structure>
  <varray name="forces" >
   <v>      -1.21735937      -0.02300306       3.33100445 </v>
   <v>       1.21735937       0.02300306      -3.33100445 </v>
  </varray>
  <energy>
   <i name="e_fr_energy">    -18.02424380 </i>
   <i name="e_wo_entrp">    -18.02470558 </i>
   <i name="e_0_energy">    -18.02439773 </i>
   <i name="kinetic">      0.00205636 </i>
   <i name="lattice kinetic">      0.00000000 </i>
   <i name="nosepot">      0.00000000 </i>
   <i name="nosekinetic">      0.00000000 </i>
   <i name="total">    -18.02218745 </i>
  </energy>
  <time name="totalsc">   14.17    2.37</time>
 </calculation>
 <calculation>
  <scstep>
   <time name="dav">    4.48    0.75</time>
   <time name="total">    5.01    0.84</time>
   <energy>
    <i name="alphaZ">      3.71250722 </i>
    <i name="ewald">    385.81915342 </i>
    <i name="hartreedc">   -649.45387583 </i>
    <i name="XCdc">     28.83344555 </i>
    <i name="pawpsdc">   3212.39732756 </i>
    <i name="pawaedc">  -3214.46827093 </i>
    <i name="eentropy">      0.00045006 </i>
    <i name="bandstr">    -79.16883270 </i>
    <i name="atom">    294.30283995 </i>
    <i name="e_fr_energy">    -18.02525570 </i>
    <i name="e_wo_entrp">    -18.02570575 </i>
    <i name="e_0_energy">    -18.02540572 </i>
   </energy>
  </scstep>
  <scstep>
   <time name="dav">    4.41    0.73</time>
   <time name="total">    4.51    0.75</time>
   <energy>
    <i name="alphaZ">      3.71250722 </i>
    <i name="ewald">    385.81915342 </i>
    <i name="hartreedc">   -649.45459451 </i>
    <i name="XCdc">     28.83348335 </i>
    <i name="pawpsdc">   3212.70423794 </i>
    <i name="pawaedc">  -3214.77521016 </i>
    <i name="eentropy">      0.00045051 </i>
    <i name="bandstr">    -79.16812367 </i>
    <i name="atom">    294.30283995 </i>
    <i name="e_fr_energy">    -18.02525594 </i>
    <i name="e_wo_entrp">    -18.02570645 </i>
    <i name="e_0_energy">    -18.02540611 </i>
   </energy>
  </scstep>
  <structure>
   <crystal>
    <varray name="basis" >
     <v>       2.44104624       0.00000000       0.00000000 </v>
     <v>      -1.22052312       2.11400806       0.00000000 </v>
     <v>       0.00000000       0.00000000      10.00000000 </v>
    </varray>
    <i name="volume">     51.60391413 </i>
    <varray name="rec_basis" >
     <v>       0.40966041       0.23651755      -0.00000000 </v>
     <v>       0.00000000       0.47303509       0.00000000 </v>
     <v>       0.00000000      -0.00000000       0.10000000 </v>
    </varray>
   </crystal>
   <varray name="positions" >
    <v>       0.09993887       0.09999870       0.50004023 </v>
    <v>       0.42206113       0.76600130       0.51995977 </v>
   </varray>
  </structure>
  <varray name="forces" >
   <v>      -1.21209458      -0.02321813       3.32603348 </v>
   <v>       1.21209458       0.02321813      -3.32603348 </v>
  </varray>
  <energy>
   <i name="e_fr_energy">    -18.02525594 </i>
   <i name="e_wo_entrp">    -18.02570645 </i>
   <i name="e_0_energy">    -18.02540611 </i>
   <i name="kinetic">      0.00306803 </i>
   <i name="lattice kinetic">      0.00000000 </i>
   <i name="nosepot">      0.00000000 </i>
   <i name="nosekinetic">      0.00000000 </i>
   <i name="total">    -18.02218791 </i>
  </energy>
  <time name="totalsc">   13.36    2.22</time>
 </calculation>
 <calculation>
  <scstep>
   <time name="dav">    4.66    0.78</time>
   <time name="total">    5.18    0.86</time>
   <energy>
    <i name="alphaZ">      3.71250722 </i>
    <i name="ewald">    385.83802005 </i>
    <i name="hartreedc">   -649.46973091 </i>
    <i name="XCdc">     28.83384008 </i>
    <i name="pawpsdc">   3212.81916685 </i>
    <i name="pawaedc">  -3214.89016748 </i>
    <i name="eentropy">      0.00043642 </i>
    <i name="bandstr">    -79.17337931 </i>
    <i name="atom">    294.30283995 </i>
    <i name="e_fr_energy">    -18.02646712 </i>
    <i name="e_wo_entrp">    -18.02690354 </i>
    <i name="e_0_energy">    -18.02661259 </i>
   </energy>
  </scstep>
  <scstep>
   <time name="dav">    4.39    0.73</time>
   <time name="total">    4.49    0.75</time>
   <energy>
    <i name="alphaZ">      3.71250722 </i>
    <i name="ewald">    385.83802005 </i>
    <i name="hartreedc">   -649.47065408 </i>
    <i name="XCdc">     28.83388855 </i>
    <i name="pawpsdc">   3213.19722422 </i>
    <i name="pawaedc">  -3215.26826387 </i>
    <i name="eentropy">      0.00043703 </i>
    <i name="bandstr">    -79.17246652 </i>
    <i name="atom">    294.30283995 </i>
    <i name="e_fr_energy">    -18.02646744 </i>
    <i name="e_wo_entrp">    -18.02690447 </i>
    <i name="e_0_energy">    -18.02661312 </i>
   </energy>
  </scstep>
  <structure>
   <crystal>
    <varray name="basis" >
     <v>       2.44104624       0.00000000       0.00000000 </v>
     <v>      -1.22052312       2.11400806       0.00000000 </v>
     <v>       0.00000000       0.00000000      10.00000000 </v>
    </varray>
    <i name="volume">     51.60391413 </i>
    <varray name="rec_basis" >
     <v>       0.40966041       0.23651755      -0.00000000 </v>
     <v>       0.00000000       0.47303509       0.00000000 </v>
     <v>       0.00000000      -0.00000000       0.10000000 </v>
    </varray>
   </crystal>
   <varray name="positions" >
    <v>       0.09991448       0.09999817       0.50005631 </v>
    <v>       0.42208552       0.76600183       0.51994369 </v>
   </varray>
  </structure>
  <varray name="forces" >
   <v>      -1.20623851      -0.02341349       3.32071842 </v>
   <v>       1.20623851       0.02341349      -3.32071842 </v>
  </varray>
  <energy>
   <i name="e_fr_energy">    -18.02646744 </i>
   <i name="e_wo_entrp">    -18.02690447 </i>
   <i name="e_0_energy">    -18.02661312 </i>
   <i name="kinetic">      0.00427891 </i>
   <i name="lattice kinetic">      0.00000000 </i>
   <i name="nosepot">      0.00000000 </i>
   <i name="nosekinetic">      0.00000000 </i>
   <i name="total">    -18.02218853 </i>
  </energy>
  <time name="totalsc">   13.49    2.25</time>
 </calculation>
 <calculation>
  <scstep>
   <time name="dav">    6.60    1.10</time>
   <time name="total">    7.15    1.19</time>
   <energy>
    <i name="alphaZ">      3.71250722 </i>
    <i name="ewald">    385.85998310 </i>
    <i name="hartreedc">   -649.48832510 </i>
    <i name="XCdc">     28.83430666 </i>
    <i name="pawpsdc">   3213.34693135 </i>
    <i name="pawaedc">  -3215.41800751 </i>
    <i name="eentropy">      0.00042051 </i>
    <i name="bandstr">    -79.17853300 </i>
    <i name="atom">    294.30283995 </i>
    <i name="e_fr_energy">    -18.02787681 </i>
    <i name="e_wo_entrp">    -18.02829732 </i>
    <i name="e_0_energy">    -18.02801698 </i>
   </energy>
  </scstep>
  <scstep>
   <time name="dav">    4.40    0.73</time>
   <time name="total">    4.51    0.75</time>
   <energy>
    <i name="alphaZ">      3.71250722 </i>
    <i name="ewald">    385.85998310 </i>
    <i name="hartreedc">   -649.48947397 </i>
    <i name="XCdc">     28.83436691 </i>
    <i name="pawpsdc">   3213.73258593 </i>
    <i name="pawaedc">  -3215.80371516 </i>
    <i name="eentropy">      0.00042135 </i>
    <i name="bandstr">    -79.17739231 </i>
    <i name="atom">    294.30283995 </i>
    <i name="e_fr_energy">    -18.02787698 </i>
    <i name="e_wo_entrp">    -18.02829833 </i>
    <i name="e_0_energy">    -18.02801743 </i>
   </energy>
  </scstep>
  <structure>
   <crystal>
    <varray name="basis" >
     <v>       2.44104624       0.00000000       0.00000000 </v>
     <v>      -1.22052312       2.11400806       0.00000000 </v>
     <v>       0.00000000       0.00000000      10.00000000 </v>
    </varray>
    <i name="volume">     51.60391413 </i>
    <varray name="rec_basis" >
     <v>       0.40966041       0.23651755      -0.00000000 </v>
     <v>       0.00000000       0.47303509       0.00000000 </v>
     <v>       0.00000000      -0.00000000       0.10000000 </v>
    </varray>
   </crystal>
   <varray name="positions" >
    <v>       0.09988608       0.09999756       0.50007505 </v>
    <v>       0.42211392       0.76600244       0.51992495 </v>
   </varray>
  </structure>
  <varray name="forces" >
   <v>      -1.20018593      -0.02335482       3.31582904 </v>
   <v>       1.20018593       0.02335482      -3.31582904 </v>
  </varray>
  <energy>
   <i name="e_fr_energy">    -18.02787698 </i>
   <i name="e_wo_entrp">    -18.02829833 </i>
   <i name="e_0_energy">    -18.02801743 </i>
   <i name="kinetic">      0.00568782 </i>
   <i name="lattice kinetic">      0.00000000 </i>
   <i name="nosepot">      0.00000000 </i>
   <i name="nosekinetic">      0.00000000 </i>
   <i name="total">    -18.02218916 </i>
  </energy>
  <time name="totalsc">   15.47    2.58</time>
 </calculation>
 <calculation>
  <scstep>
   <time name="dav">    7.73    1.29</time>
   <time name="total">    8.25    1.38</time>
   <energy>
    <i name="alphaZ">      3.71250722 </i>
    <i name="ewald">    385.88502222 </i>
    <i name="hartreedc">   -649.50994623 </i>
    <i name="XCdc">     28.83485959 </i>
    <i name="pawpsdc">   3214.11096067 </i>
    <i name="pawaedc">  -3216.18214928 </i>
    <i name="eentropy">      0.00040266 </i>
    <i name="bandstr">    -79.18397933 </i>
    <i name="atom">    294.30283995 </i>
    <i name="e_fr_energy">    -18.02948252 </i>
    <i name="e_wo_entrp">    -18.02988519 </i>
    <i name="e_0_energy">    -18.02961675 </i>
   </energy>
  </scstep>
  <scstep>
   <time name="dav">    4.54    0.76</time>
   <time name="total">    4.63    0.77</time>
   <energy>
    <i name="alphaZ">      3.71250722 </i>
    <i name="ewald">    385.88502222 </i>
    <i name="hartreedc">   -649.51110184 </i>
    <i name="XCdc">     28.83492146 </i>
    <i name="pawpsdc">   3214.47405756 </i>
    <i name="pawaedc">  -3216.54530127 </i>
    <i name="eentropy">      0.00040347 </i>
    <i name="bandstr">    -79.18283139 </i>
    <i name="atom">    294.30283995 </i>
    <i name="e_fr_energy">    -18.02948262 </i>
    <i name="e_wo_entrp">    -18.02988609 </i>
    <i name="e_0_energy">    -18.02961711 </i>
   </energy>
  </scstep>
  <structure>
   <crystal>
    <varray name="basis" >
     <v>       2.44104624       0.00000000       0.00000000 </v>
     <v>      -1.22052312       2.11400806       0.00000000 </v>
     <v>       0.00000000       0.00000000      10.00000000 </v>
    </varray>
    <i name="volume">     51.60391413 </i>
    <varray name="rec_basis" >
     <v>       0.40966041       0.23651755      -0.00000000 </v>
     <v>       0.00000000       0.47303509       0.00000000 </v>
     <v>       0.00000000      -0.00000000       0.10000000 </v>
    </varray>
   </crystal>
   <varray name="positions" >
    <v>       0.09985369       0.09999686       0.50009646 </v>
    <v>       0.42214631       0.76600314       0.51990354 </v>
   </varray>
  </structure>
  <varray name="forces" >
   <v>      -1.19267611      -0.02370603       3.30894358 </v>
   <v>       1.19267611       0.02370603      -3.30894358 </v>
  </varray>
  <energy>
   <i name="e_fr_energy">    -18.02948262 </i>
   <i name="e_wo_entrp">    -18.02988609 </i>
   <i name="e_0_energy">    -18.02961711 </i>
   <i name="kinetic">      0.00729310 </i>
   <i name="lattice kinetic">      0.00000000 </i>
   <i name="nosepot">      0.00000000 </i>
   <i name="nosekinetic">      0.00000000 </i>
   <i name="total">    -18.02218952 </i>
  </energy>
  <time name="totalsc">   16.70    2.78</time>
 </calculation>
 <calculation>
  <scstep>
   <time name="dav">    8.13    1.35</time>
   <time name="total">    8.64    1.44</time>
   <energy>
    <i name="alphaZ">      3.71250722 </i>
    <i name="ewald">    385.91311297 </i>
    <i name="hartreedc">   -649.53424437 </i>
    <i name="XCdc">     28.83548350 </i>
    <i name="pawpsdc">   3214.99832414 </i>
    <i name="pawaedc">  -3217.06964370 </i>
    <i name="eentropy">      0.00038236 </i>
    <i name="bandstr">    -79.19004430 </i>
    <i name="atom">    294.30283995 </i>
    <i name="e_fr_energy">    -18.03128223 </i>
    <i name="e_wo_entrp">    -18.03166459 </i>
    <i name="e_0_energy">    -18.03140968 </i>
   </energy>
  </scstep>
  <scstep>
   <time name="dav">    4.43    0.75</time>
   <time name="total">    4.55    0.76</time>
   <energy>
    <i name="alphaZ">      3.71250722 </i>
    <i name="ewald">    385.91311297 </i>
    <i name="hartreedc">   -649.53540369 </i>
    <i name="XCdc">     28.83554622 </i>
    <i name="pawpsdc">   3215.30928409 </i>
    <i name="pawaedc">  -3217.38066203 </i>
    <i name="eentropy">      0.00038314 </i>
    <i name="bandstr">    -79.18889012 </i>
    <i name="atom">    294.30283995 </i>
    <i name="e_fr_energy">    -18.03128224 </i>
    <i name="e_wo_entrp">    -18.03166538 </i>
    <i name="e_0_energy">    -18.03140996 </i>
   </energy>
  </scstep>
  <structure>
   <crystal>
    <varray name="basis" >
     <v>       2.44104624       0.00000000       0.00000000 </v>
     <v>      -1.22052312       2.11400806       0.00000000 </v>
     <v>       0.00000000       0.00000000      10.00000000 </v>
    </varray>
    <i name="volume">     51.60391413 </i>
    <varray name="rec_basis" >
     <v>       0.40966041       0.23651755      -0.00000000 </v>
     <v>       0.00000000       0.47303509       0.00000000 </v>
     <v>       0.00000000      -0.00000000       0.10000000 </v>
    </varray>
   </crystal>
   <varray name="positions" >
    <v>       0.09981733       0.09999607       0.50012053 </v>
    <v>       0.42218267       0.76600393       0.51987947 </v>
   </varray>
  </structure>
  <varray name="forces" >
   <v>      -1.18403169      -0.02358447       3.30142686 </v>
   <v>       1.18403169       0.02358447      -3.30142686 </v>
  </varray>
  <energy>
   <i name="e_fr_energy">    -18.03128224 </i>
   <i name="e_wo_entrp">    -18.03166538 </i>
   <i name="e_0_energy">    -18.03140996 </i>
   <i name="kinetic">      0.00909251 </i>
   <i name="lattice kinetic">      0.00000000 </i>
   <i name="nosepot">      0.00000000 </i>
   <i name="nosekinetic">      0.00000000 </i>
   <i name="total">    -18.02218974 </i>
  </energy>
  <time name="totalsc">   16.96    2.83</time>
 </calculation>
 <calculation>
  <scstep>
   <time name="dav">    8.30    1.39</time>
   <time name="total">    8.83    1.47</time>
   <energy>
    <i name="alphaZ">      3.71250722 </i>
    <i name="ewald">    385.94422815 </i>
    <i name="hartreedc">   -649.56092906 </i>
    <i name="XCdc">     28.83616262 </i>
    <i name="pawpsdc">   3215.99050804 </i>
    <i name="pawaedc">  -3218.06195941 </i>
    <i name="eentropy">      0.00035941 </i>
    <i name="bandstr">    -79.19699029 </i>
    <i name="atom">    294.30283995 </i>
    <i name="e_fr_energy">    -18.03327336 </i>
    <i name="e_wo_entrp">    -18.03363277 </i>
    <i name="e_0_energy">    -18.03339316 </i>
   </energy>
  </scstep>
  <scstep>
   <time name="dav">    4.49    0.75</time>
   <time name="total">    4.60    0.77</time>
   <energy>
    <i name="alphaZ">      3.71250722 </i>
    <i name="ewald">    385.94422815 </i>
    <i name="hartreedc">   -649.56217838 </i>
    <i name="XCdc">     28.83623055 </i>
    <i name="pawpsdc">   3216.27680657 </i>
    <i name="pawaedc">  -3218.34831937 </i>
    <i name="eentropy">      0.00036019 </i>
    <i name="bandstr">    -79.19574827 </i>
    <i name="atom">    294.30283995 </i>
    <i name="e_fr_energy">    -18.03327339 </i>
    <i name="e_wo_entrp">    -18.03363358 </i>
    <i name="e_0_energy">    -18.03339345 </i>
   </energy>
  </scstep>
  <structure>
   <crystal>
    <varray name="basis" >
     <v>       2.44104624       0.00000000       0.00000000 </v>
     <v>      -1.22052312       2.11400806       0.00000000 </v>
     <v>       0.00000000       0.00000000      10.00000000 </v>
    </varray>
    <i name="volume">     51.60391413 </i>
    <varray name="rec_basis" >
     <v>       0.40966041       0.23651755      -0.00000000 </v>
     <v>       0.00000000       0.47303509       0.00000000 </v>
     <v>       0.00000000      -0.00000000       0.10000000 </v>
    </varray>
   </crystal>
   <varray name="positions" >
    <v>       0.09977703       0.09999519       0.50014724 </v>
    <v>       0.42222297       0.76600481       0.51985276 </v>
   </varray>
  </structure>
  <varray name="forces" >
   <v>      -1.17423877      -0.02398702       3.29234143 </v>
   <v>       1.17423877       0.02398702      -3.29234143 </v>
  </varray>
  <energy>
   <i name="e_fr_energy">    -18.03327339 </i>
   <i name="e_wo_entrp">    -18.03363358 </i>
   <i name="e_0_energy">    -18.03339345 </i>
   <i name="kinetic">      0.01108358 </i>
   <i name="lattice kinetic">      0.00000000 </i>
   <i name="nosepot">      0.00000000 </i>
   <i name="nosekinetic">      0.00000000 </i>
   <i name="total">    -18.02218981 </i>
  </energy>
  <time name="totalsc">   17.50    2.92</time>
 </calculation>
 <calculation>
  <scstep>
   <time name="dav">    8.24    1.37</time>
   <time name="total">    8.77    1.46</time>
   <energy>
    <i name="alphaZ">      3.71250722 </i>
    <i name="ewald">    385.97833692 </i>
    <i name="hartreedc">   -649.59007713 </i>
    <i name="XCdc">     28.83690200 </i>
    <i name="pawpsdc">   3216.94343912 </i>
    <i name="pawaedc">  -3219.01502785 </i>
    <i name="eentropy">      0.00033371 </i>
    <i name="bandstr">    -79.20470727 </i>
    <i name="atom">    294.30283995 </i>
    <i name="e_fr_energy">    -18.03545333 </i>
    <i name="e_wo_entrp">    -18.03578704 </i>
    <i name="e_0_energy">    -18.03556457 </i>
   </energy>
  </scstep>
  <scstep>
   <time name="dav">    4.42    0.74</time>
   <time name="total">    4.53    0.76</time>
   <energy>
    <i name="alphaZ">      3.71250722 </i>
    <i name="ewald">    385.97833692 </i>
    <i name="hartreedc">   -649.59145323 </i>
    <i name="XCdc">     28.83697656 </i>
    <i name="pawpsdc">   3217.25192965 </i>
    <i name="pawaedc">  -3219.32358665 </i>
    <i name="eentropy">      0.00033459 </i>
    <i name="bandstr">    -79.20333837 </i>
    <i name="atom">    294.30283995 </i>
    <i name="e_fr_energy">    -18.03545336 </i>
    <i name="e_wo_entrp">    -18.03578795 </i>
    <i name="e_0_energy">    -18.03556489 </i>
   </energy>
  </scstep>
  <structure>
   <crystal>
    <varray name="basis" >
     <v>       2.44104624       0.00000000       0.00000000 </v>
     <v>      -1.22052312       2.11400806       0.00000000 </v>
     <v>       0.00000000       0.00000000      10.00000000 </v>
    </varray>
    <i name="volume">     51.60391413 </i>
    <varray name="rec_basis" >
     <v>       0.40966041       0.23651755      -0.00000000 </v>
     <v>       0.00000000       0.47303509       0.00000000 </v>
     <v>       0.00000000      -0.00000000       0.10000000 </v>
    </varray>
   </crystal>
   <varray name="positions" >
    <v>       0.09973282       0.09999421       0.50017660 </v>
    <v>       0.42226718       0.76600579       0.51982340 </v>
   </varray>
  </structure>
  <varray name="forces" >
   <v>      -1.16364159      -0.02442509       3.28235103 </v>
   <v>       1.16364159       0.02442509      -3.28235103 </v>
  </varray>
  <energy>
   <i name="e_fr_energy">    -18.03545336 </i>
   <i name="e_wo_entrp">    -18.03578795 </i>
   <i name="e_0_energy">    -18.03556489 </i>
   <i name="kinetic">      0.01326352 </i>
   <i name="lattice kinetic">      0.00000000 </i>
   <i name="nosepot">      0.00000000 </i>
   <i name="nosekinetic">      0.00000000 </i>
   <i name="total">    -18.02218984 </i>
  </energy>
  <time name="totalsc">   17.14    2.86</time>
 </calculation>
 <calculation>
  <scstep>
   <time name="dav">    9.12    1.52</time>
   <time name="total">    9.62    1.61</time>
   <energy>
    <i name="alphaZ">      3.71250722 </i>
    <i name="ewald">    386.01540542 </i>
    <i name="hartreedc">   -649.62173672 </i>
    <i name="XCdc">     28.83770386 </i>
    <i name="pawpsdc">   3217.96389776 </i>
    <i name="pawaedc">  -3220.03563221 </i>
    <i name="eentropy">      0.00030535 </i>
    <i name="bandstr">    -79.21310988 </i>
    <i name="atom">    294.30283995 </i>
    <i name="e_fr_energy">    -18.03781924 </i>
    <i name="e_wo_entrp">    -18.03812460 </i>
    <i name="e_0_energy">    -18.03792103 </i>
   </energy>
  </scstep>
  <scstep>
   <time name="dav">    4.59    0.77</time>
   <time name="total">    4.72    0.79</time>
   <energy>
    <i name="alphaZ">      3.71250722 </i>
    <i name="ewald">    386.01540542 </i>
    <i name="hartreedc">   -649.62326585 </i>
    <i name="XCdc">     28.83778716 </i>
    <i name="pawpsdc">   3218.32132338 </i>
    <i name="pawaedc">  -3220.39313541 </i>
    <i name="eentropy">      0.00030637 </i>
    <i name="bandstr">    -79.21158749 </i>
    <i name="atom">    294.30283995 </i>
    <i name="e_fr_energy">    -18.03781924 </i>
    <i name="e_wo_entrp">    -18.03812561 </i>
    <i name="e_0_energy">    -18.03792137 </i>
   </energy>
  </scstep>
  <structure>
   <crystal>
    <varray name="basis" >
     <v>       2.44104624       0.00000000       0.00000000 </v>
     <v>      -1.22052312       2.11400806       0.00000000 </v>
     <v>       0.00000000       0.00000000      10.00000000 </v>
    </varray>
    <i name="volume">     51.60391413 </i>
    <varray name="rec_basis" >
     <v>       0.40966041       0.23651755      -0.00000000 </v>
     <v>       0.00000000       0.47303509       0.00000000 </v>
     <v>       0.00000000      -0.00000000       0.10000000 </v>
    </varray>
   </crystal>
   <varray name="positions" >
    <v>       0.09968473       0.09999315       0.50020860 </v>
    <v>       0.42231527       0.76600685       0.51979140 </v>
   </varray>
  </structure>
  <varray name="forces" >
   <v>      -1.15209439      -0.02482467       3.27147787 </v>
   <v>       1.15209439       0.02482467      -3.27147787 </v>
  </varray>
  <energy>
   <i name="e_fr_energy">    -18.03781924 </i>
   <i name="e_wo_entrp">    -18.03812561 </i>
   <i name="e_0_energy">    -18.03792137 </i>
   <i name="kinetic">      0.01562941 </i>
   <i name="lattice kinetic">      0.00000000 </i>
   <i name="nosepot">      0.00000000 </i>
   <i name="nosekinetic">      0.00000000 </i>
   <i name="total">    -18.02218983 </i>
  </energy>
  <time name="totalsc">   18.17    3.03</time>
 </calculation>
 <calculation>
  <scstep>
   <time name="dav">    8.97    1.50</time>
   <time name="total">    9.50    1.58</time>
   <energy>
    <i name="alphaZ">      3.71250722 </i>
    <i name="ewald">    386.05539684 </i>
    <i name="hartreedc">   -649.65600392 </i>
    <i name="XCdc">     28.83857676 </i>
    <i name="pawpsdc">   3219.13173644 </i>
    <i name="pawaedc">  -3221.20363878 </i>
    <i name="eentropy">      0.00027439 </i>
    <i name="bandstr">    -79.22205685 </i>
    <i name="atom">    294.30283995 </i>
    <i name="e_fr_energy">    -18.04036795 </i>
    <i name="e_wo_entrp">    -18.04064234 </i>
    <i name="e_0_energy">    -18.04045941 </i>
   </energy>
  </scstep>
  <scstep>
   <time name="dav">    4.50    0.75</time>
   <time name="total">    4.62    0.77</time>
   <energy>
    <i name="alphaZ">      3.71250722 </i>
    <i name="ewald">    386.05539684 </i>
    <i name="hartreedc">   -649.65762548 </i>
    <i name="XCdc">     28.83866478 </i>
    <i name="pawpsdc">   3219.50688452 </i>
    <i name="pawaedc">  -3221.57886796 </i>
    <i name="eentropy">      0.00027549 </i>
    <i name="bandstr">    -79.22044331 </i>
    <i name="atom">    294.30283995 </i>
    <i name="e_fr_energy">    -18.04036796 </i>
    <i name="e_wo_entrp">    -18.04064345 </i>
    <i name="e_0_energy">    -18.04045979 </i>
   </energy>
  </scstep>
  <structure>
   <crystal>
    <varray name="basis" >
     <v>       2.44104624       0.00000000       0.00000000 </v>
     <v>      -1.22052312       2.11400806       0.00000000 </v>
     <v>       0.00000000       0.00000000      10.00000000 </v>
    </varray>
    <i name="volume">     51.60391413 </i>
    <varray name="rec_basis" >
     <v>       0.40966041       0.23651755      -0.00000000 </v>
     <v>       0.00000000       0.47303509       0.00000000 </v>
     <v>       0.00000000      -0.00000000       0.10000000 </v>
    </varray>
   </crystal>
   <varray name="positions" >
    <v>       0.09963280       0.09999199       0.50024323 </v>
    <v>       0.42236720       0.76600801       0.51975677 </v>
   </varray>
  </structure>
  <varray name="forces" >
   <v>      -1.13947436      -0.02488631       3.26017155 </v>
   <v>       1.13947436       0.02488631      -3.26017155 </v>
  </varray>
  <energy>
   <i name="e_fr_energy">    -18.04036796 </i>
   <i name="e_wo_entrp">    -18.04064345 </i>
   <i name="e_0_energy">    -18.04045979 </i>
   <i name="kinetic">      0.01817826 </i>
   <i name="lattice kinetic">      0.00000000 </i>
   <i name="nosepot">      0.00000000 </i>
   <i name="nosekinetic">      0.00000000 </i>
   <i name="total">    -18.02218970 </i>
  </energy>
  <time name="totalsc">   17.96    2.99</time>
 </calculation>
 <calculation>
  <scstep>
   <time name="dav">    9.43    1.57</time>
   <time name="total">    9.96    1.66</time>
   <energy>
    <i name="alphaZ">      3.71250722 </i>
    <i name="ewald">    386.09827189 </i>
    <i name="hartreedc">   -649.69272126 </i>
    <i name="XCdc">     28.83951117 </i>
    <i name="pawpsdc">   3220.36072182 </i>
    <i name="pawaedc">  -3222.43279993 </i>
    <i name="eentropy">      0.00024061 </i>
    <i name="bandstr">    -79.23166783 </i>
    <i name="atom">    294.30283995 </i>
    <i name="e_fr_energy">    -18.04309635 </i>
    <i name="e_wo_entrp">    -18.04333696 </i>
    <i name="e_0_energy">    -18.04317655 </i>
   </energy>
  </scstep>
  <scstep>
   <time name="dav">    4.70    0.78</time>
   <time name="total">    4.80    0.80</time>
   <energy>
    <i name="alphaZ">      3.71250722 </i>
    <i name="ewald">    386.09827189 </i>
    <i name="hartreedc">   -649.69447024 </i>
    <i name="XCdc">     28.83960635 </i>
    <i name="pawpsdc">   3220.77305891 </i>
    <i name="pawaedc">  -3222.84522453 </i>
    <i name="eentropy">      0.00024181 </i>
    <i name="bandstr">    -79.22992772 </i>
    <i name="atom">    294.30283995 </i>
    <i name="e_fr_energy">    -18.04309635 </i>
    <i name="e_wo_entrp">    -18.04333816 </i>
    <i name="e_0_energy">    -18.04317695 </i>
   </energy>
  </scstep>
  <structure>
   <crystal>
    <varray name="basis" >
     <v>       2.44104624       0.00000000       0.00000000 </v>
     <v>      -1.22052312       2.11400806       0.00000000 </v>
     <v>       0.00000000       0.00000000      10.00000000 </v>
    </varray>
    <i name="volume">     51.60391413 </i>
    <varray name="rec_basis" >
     <v>       0.40966041       0.23651755      -0.00000000 </v>
     <v>       0.00000000       0.47303509       0.00000000 </v>
     <v>       0.00000000      -0.00000000       0.10000000 </v>
    </varray>
   </crystal>
   <varray name="positions" >
    <v>       0.09957708       0.09999074       0.50028048 </v>
    <v>       0.42242292       0.76600926       0.51971952 </v>
   </varray>
  </structure>
  <varray name="forces" >
   <v>      -1.12592702      -0.02540634       3.24768035 </v>
   <v>       1.12592702       0.02540634      -3.24768035 </v>
  </varray>
  <energy>
   <i name="e_fr_energy">    -18.04309635 </i>
   <i name="e_wo_entrp">    -18.04333816 </i>
   <i name="e_0_energy">    -18.04317695 </i>
   <i name="kinetic">      0.02090676 </i>
   <i name="lattice kinetic">      0.00000000 </i>
   <i name="nosepot">      0.00000000 </i>
   <i name="nosekinetic">      0.00000000 </i>
   <i name="total">    -18.02218959 </i>
  </energy>
  <time name="totalsc">   18.62    3.10</time>
 </calculation>
 <calculation>
  <scstep>
   <time name="dav">    8.83    1.47</time>
   <time name="total">    9.36    1.56</time>
   <energy>
    <i name="alphaZ">      3.71250722 </i>
    <i name="ewald">    386.14398810 </i>
    <i name="hartreedc">   -649.73195751 </i>
    <i name="XCdc">     28.84051349 </i>
    <i name="pawpsdc">   3221.70702712 </i>
    <i name="pawaedc">  -3223.77930118 </i>
    <i name="eentropy">      0.00020403 </i>
    <i name="bandstr">    -79.24182186 </i>
    <i name="atom">    294.30283995 </i>
    <i name="e_fr_energy">    -18.04600064 </i>
    <i name="e_wo_entrp">    -18.04620467 </i>
    <i name="e_0_energy">    -18.04606865 </i>
   </energy>
  </scstep>
  <scstep>
   <time name="dav">    4.70    0.78</time>
   <time name="total">    4.80    0.80</time>
   <energy>
    <i name="alphaZ">      3.71250722 </i>
    <i name="ewald">    386.14398810 </i>
    <i name="hartreedc">   -649.73376501 </i>
    <i name="XCdc">     28.84061180 </i>
    <i name="pawpsdc">   3222.13005403 </i>
    <i name="pawaedc">  -3224.20241813 </i>
    <i name="eentropy">      0.00020530 </i>
    <i name="bandstr">    -79.24002393 </i>
    <i name="atom">    294.30283995 </i>
    <i name="e_fr_energy">    -18.04600067 </i>
    <i name="e_wo_entrp">    -18.04620597 </i>
    <i name="e_0_energy">    -18.04606910 </i>
   </energy>
  </scstep>
  <structure>
   <crystal>
    <varray name="basis" >
     <v>       2.44104624       0.00000000       0.00000000 </v>
     <v>      -1.22052312       2.11400806       0.00000000 </v>
     <v>       0.00000000       0.00000000      10.00000000 </v>
    </varray>
    <i name="volume">     51.60391413 </i>
    <varray name="rec_basis" >
     <v>       0.40966041       0.23651755      -0.00000000 </v>
     <v>       0.00000000       0.47303509       0.00000000 </v>
     <v>       0.00000000      -0.00000000       0.10000000 </v>
    </varray>
   </crystal>
   <varray name="positions" >
    <v>       0.09951760       0.09998939       0.50032033 </v>
    <v>       0.42248240       0.76601061       0.51967967 </v>
   </varray>
  </structure>
  <varray name="forces" >
   <v>      -1.11140568      -0.02632144       3.23426872 </v>
   <v>       1.11140568       0.02632144      -3.23426872 </v>
  </varray>
  <energy>
   <i name="e_fr_energy">    -18.04600067 </i>
   <i name="e_wo_entrp">    -18.04620597 </i>
   <i name="e_0_energy">    -18.04606910 </i>
   <i name="kinetic">      0.02381117 </i>
   <i name="lattice kinetic">      0.00000000 </i>
   <i name="nosepot">      0.00000000 </i>
   <i name="nosekinetic">      0.00000000 </i>
   <i name="total">    -18.02218950 </i>
  </energy>
  <time name="totalsc">   18.02    3.00</time>
 </calculation>
 <calculation>
  <scstep>
   <time name="dav">    9.50    1.58</time>
   <time name="total">   10.02    1.67</time>
   <energy>
    <i name="alphaZ">      3.71250722 </i>
    <i name="ewald">    386.19250007 </i>
    <i name="hartreedc">   -649.77344466 </i>
    <i name="XCdc">     28.84156931 </i>
    <i name="pawpsdc">   3223.09318286 </i>
    <i name="pawaedc">  -3225.16565384 </i>
    <i name="eentropy">      0.00016441 </i>
    <i name="bandstr">    -79.25274263 </i>
    <i name="atom">    294.30283995 </i>
    <i name="e_fr_energy">    -18.04907730 </i>
    <i name="e_wo_entrp">    -18.04924170 </i>
    <i name="e_0_energy">    -18.04913210 </i>
   </energy>
  </scstep>
  <scstep>
   <time name="dav">    4.87    0.81</time>
   <time name="total">    4.99    0.83</time>
   <energy>
    <i name="alphaZ">      3.71250722 </i>
    <i name="ewald">    386.19250007 </i>
    <i name="hartreedc">   -649.77541290 </i>
    <i name="XCdc">     28.84167572 </i>
    <i name="pawpsdc">   3223.56403400 </i>
    <i name="pawaedc">  -3225.63660403 </i>
    <i name="eentropy">      0.00016582 </i>
    <i name="bandstr">    -79.25078316 </i>
    <i name="atom">    294.30283995 </i>
    <i name="e_fr_energy">    -18.04907730 </i>
    <i name="e_wo_entrp">    -18.04924312 </i>
    <i name="e_0_energy">    -18.04913257 </i>
   </energy>
  </scstep>
  <structure>
   <crystal>
    <varray name="basis" >
     <v>       2.44104624       0.00000000       0.00000000 </v>
     <v>      -1.22052312       2.11400806       0.00000000 </v>
     <v>       0.00000000       0.00000000      10.00000000 </v>
    </varray>
    <i name="volume">     51.60391413 </i>
    <varray name="rec_basis" >
     <v>       0.40966041       0.23651755      -0.00000000 </v>
     <v>       0.00000000       0.47303509       0.00000000 </v>
     <v>       0.00000000      -0.00000000       0.10000000 </v>
    </varray>
   </crystal>
   <varray name="positions" >
    <v>       0.09945442       0.09998794       0.50036278 </v>
    <v>       0.42254558       0.76601206       0.51963722 </v>
   </varray>
  </structure>
  <varray name="forces" >
   <v>      -1.09635033      -0.02669823       3.22031898 </v>
   <v>       1.09635033       0.02669823      -3.22031898 </v>
  </varray>
  <energy>
   <i name="e_fr_energy">    -18.04907730 </i>
   <i name="e_wo_entrp">    -18.04924312 </i>
   <i name="e_0_energy">    -18.04913257 </i>
   <i name="kinetic">      0.02688785 </i>
   <i name="lattice kinetic">      0.00000000 </i>
   <i name="nosepot">      0.00000000 </i>
   <i name="nosekinetic">      0.00000000 </i>
   <i name="total">    -18.02218944 </i>
  </energy>
  <time name="totalsc">   18.88    3.15</time>
 </calculation>
 <calculation>
  <scstep>
   <time name="dav">    9.43    1.57</time>
   <time name="total">    9.96    1.66</time>
   <energy>
    <i name="alphaZ">      3.71250722 </i>
    <i name="ewald">    386.24375990 </i>
    <i name="hartreedc">   -649.81742703 </i>
    <i name="XCdc">     28.84269251 </i>
    <i name="pawpsdc">   3224.61779794 </i>
    <i name="pawaedc">  -3226.69048896 </i>
    <i name="eentropy">      0.00012191 </i>
    <i name="bandstr">    -79.26412544 </i>
    <i name="atom">    294.30283995 </i>
    <i name="e_fr_energy">    -18.05232200 </i>
    <i name="e_wo_entrp">    -18.05244391 </i>
    <i name="e_0_energy">    -18.05236264 </i>
   </energy>
  </scstep>
  <scstep>
   <time name="dav">    4.97    0.83</time>
   <time name="total">    5.09    0.85</time>
   <energy>
    <i name="alphaZ">      3.71250722 </i>
    <i name="ewald">    386.24375990 </i>
    <i name="hartreedc">   -649.81948448 </i>
    <i name="XCdc">     28.84280407 </i>
    <i name="pawpsdc">   3225.10397370 </i>
    <i name="pawaedc">  -3227.17676686 </i>
    <i name="eentropy">      0.00012342 </i>
    <i name="bandstr">    -79.26207894 </i>
    <i name="atom">    294.30283995 </i>
    <i name="e_fr_energy">    -18.05232201 </i>
    <i name="e_wo_entrp">    -18.05244543 </i>
    <i name="e_0_energy">    -18.05236315 </i>
   </energy>
  </scstep>
  <structure>
   <crystal>
    <varray name="basis" >
     <v>       2.44104624       0.00000000       0.00000000 </v>
     <v>      -1.22052312       2.11400806       0.00000000 </v>
     <v>       0.00000000       0.00000000      10.00000000 </v>
    </varray>
    <i name="volume">     51.60391413 </i>
    <varray name="rec_basis" >
     <v>       0.40966041       0.23651755      -0.00000000 </v>
     <v>       0.00000000       0.47303509       0.00000000 </v>
     <v>       0.00000000      -0.00000000       0.10000000 </v>
    </varray>
   </crystal>
   <varray name="positions" >
    <v>       0.09938757       0.09998638       0.50040782 </v>
    <v>       0.42261243       0.76601362       0.51959218 </v>
   </varray>
  </structure>
  <varray name="forces" >
   <v>      -1.08034345      -0.02719137       3.20488482 </v>
   <v>       1.08034345       0.02719137      -3.20488482 </v>
  </varray>
  <energy>
   <i name="e_fr_energy">    -18.05232201 </i>
   <i name="e_wo_entrp">    -18.05244543 </i>
   <i name="e_0_energy">    -18.05236315 </i>
   <i name="kinetic">      0.03013270 </i>
   <i name="lattice kinetic">      0.00000000 </i>
   <i name="nosepot">      0.00000000 </i>
   <i name="nosekinetic">      0.00000000 </i>
   <i name="total">    -18.02218931 </i>
  </energy>
  <time name="totalsc">   18.89    3.15</time>
 </calculation>
 <calculation>
  <scstep>
   <time name="dav">    9.26    1.54</time>
   <time name="total">    9.77    1.63</time>
   <energy>
    <i name="alphaZ">      3.71250722 </i>
    <i name="ewald">    386.29771631 </i>
    <i name="hartreedc">   -649.86365889 </i>
    <i name="XCdc">     28.84387284 </i>
    <i name="pawpsdc">   3226.18051192 </i>
    <i name="pawaedc">  -3228.25342989 </i>
    <i name="eentropy">      0.00007627 </i>
    <i name="bandstr">    -79.27616678 </i>
    <i name="atom">    294.30283995 </i>
    <i name="e_fr_energy">    -18.05573105 </i>
    <i name="e_wo_entrp">    -18.05580732 </i>
    <i name="e_0_energy">    -18.05575647 </i>
   </energy>
  </scstep>
  <scstep>
   <time name="dav">    4.83    0.81</time>
   <time name="total">    4.94    0.83</time>
   <energy>
    <i name="alphaZ">      3.71250722 </i>
    <i name="ewald">    386.29771631 </i>
    <i name="hartreedc">   -649.86582672 </i>
    <i name="XCdc">     28.84399008 </i>
    <i name="pawpsdc">   3226.71278564 </i>
    <i name="pawaedc">  -3228.78581089 </i>
    <i name="eentropy">      0.00007789 </i>
    <i name="bandstr">    -79.27401055 </i>
    <i name="atom">    294.30283995 </i>
    <i name="e_fr_energy">    -18.05573107 </i>
    <i name="e_wo_entrp">    -18.05580896 </i>
    <i name="e_0_energy">    -18.05575703 </i>
   </energy>
  </scstep>
  <structure>
   <crystal>
    <varray name="basis" >
     <v>       2.44104624       0.00000000       0.00000000 </v>
     <v>      -1.22052312       2.11400806       0.00000000 </v>
     <v>       0.00000000       0.00000000      10.00000000 </v>
    </varray>
    <i name="volume">     51.60391413 </i>
    <varray name="rec_basis" >
     <v>       0.40966041       0.23651755      -0.00000000 </v>
     <v>       0.00000000       0.47303509       0.00000000 </v>
     <v>       0.00000000      -0.00000000       0.10000000 </v>
    </varray>
   </crystal>
   <varray name="positions" >
    <v>       0.09931712       0.09998473       0.50045544 </v>
    <v>       0.42268288       0.76601527       0.51954456 </v>
   </varray>
  </structure>
  <varray name="forces" >
   <v>      -1.06393516      -0.02839206       3.18967829 </v>
   <v>       1.06393516       0.02839206      -3.18967829 </v>
  </varray>
  <energy>
   <i name="e_fr_energy">    -18.05573107 </i>
   <i name="e_wo_entrp">    -18.05580896 </i>
   <i name="e_0_energy">    -18.05575703 </i>
   <i name="kinetic">      0.03354178 </i>
   <i name="lattice kinetic">      0.00000000 </i>
   <i name="nosepot">      0.00000000 </i>
   <i name="nosekinetic">      0.00000000 </i>
   <i name="total">    -18.02218929 </i>
  </energy>
  <time name="totalsc">   18.52    3.09</time>
 </calculation>
 <calculation>
  <scstep>
   <time name="dav">    9.35    1.56</time>
   <time name="total">    9.86    1.65</time>
   <energy>
    <i name="alphaZ">      3.71250722 </i>
    <i name="ewald">    386.35431626 </i>
    <i name="hartreedc">   -649.91221657 </i>
    <i name="XCdc">     28.84511408 </i>
    <i name="pawpsdc">   3227.86941032 </i>
    <i name="pawaedc">  -3229.94256915 </i>
    <i name="eentropy">      0.00002756 </i>
    <i name="bandstr">    -79.28872946 </i>
    <i name="atom">    294.30283995 </i>
    <i name="e_fr_energy">    -18.05929979 </i>
    <i name="e_wo_entrp">    -18.05932735 </i>
    <i name="e_0_energy">    -18.05930898 </i>
   </energy>
  </scstep>
  <scstep>
   <time name="dav">    5.18    0.87</time>
   <time name="total">    5.30    0.88</time>
   <energy>
    <i name="alphaZ">      3.71250722 </i>
    <i name="ewald">    386.35431626 </i>
    <i name="hartreedc">   -649.91449758 </i>
    <i name="XCdc">     28.84523770 </i>
    <i name="pawpsdc">   3228.39911828 </i>
    <i name="pawaedc">  -3230.47239021 </i>
    <i name="eentropy">      0.00002929 </i>
    <i name="bandstr">    -79.28646074 </i>
    <i name="atom">    294.30283995 </i>
    <i name="e_fr_energy">    -18.05929981 </i>
    <i name="e_wo_entrp">    -18.05932910 </i>
    <i name="e_0_energy">    -18.05930957 </i>
   </energy>
  </scstep>
  <structure>
   <crystal>
    <varray name="basis" >
     <v>       2.44104624       0.00000000       0.00000000 </v>
     <v>      -1.22052312       2.11400806       0.00000000 </v>
     <v>       0.00000000       0.00000000      10.00000000 </v>
    </varray>
    <i name="volume">     51.60391413 </i>
    <varray name="rec_basis" >
     <v>       0.40966041       0.23651755      -0.00000000 </v>
     <v>       0.00000000       0.47303509       0.00000000 </v>
     <v>       0.00000000      -0.00000000       0.10000000 </v>
    </varray>
   </crystal>
   <varray name="positions" >
    <v>       0.09924312       0.09998297       0.50050561 </v>
    <v>       0.42275688       0.76601703       0.51949439 </v>
   </varray>
  </structure>
  <varray name="forces" >
   <v>      -1.04625519      -0.02889108       3.17247286 </v>
   <v>       1.04625519       0.02889108      -3.17247286 </v>
  </varray>
  <energy>
   <i name="e_fr_energy">    -18.05929981 </i>
   <i name="e_wo_entrp">    -18.05932910 </i>
   <i name="e_0_energy">    -18.05930957 </i>
   <i name="kinetic">      0.03711067 </i>
   <i name="lattice kinetic">      0.00000000 </i>
   <i name="nosepot">      0.00000000 </i>
   <i name="nosekinetic">      0.00000000 </i>
   <i name="total">    -18.02218914 </i>
  </energy>
  <time name="totalsc">   19.01    3.17</time>
 </calculation>
 <calculation>
  <scstep>
   <time name="dav">    8.88    1.48</time>
   <time name="total">    9.38    1.57</time>
   <energy>
    <i name="alphaZ">      3.71250722 </i>
    <i name="ewald">    386.41350299 </i>
    <i name="hartreedc">   -649.96285260 </i>
    <i name="XCdc">     28.84640627 </i>
    <i name="pawpsdc">   3229.56603167 </i>
    <i name="pawaedc">  -3231.63943651 </i>
    <i name="eentropy">     -0.00002447 </i>
    <i name="bandstr">    -79.30199791 </i>
    <i name="atom">    294.30283995 </i>
[...]
       <r>   10.5659    0.0000 </r>
       <r>   10.7213    0.0000 </r>
      </set>
      <set comment="kpoint 31">
       <r>  -15.0689    1.0000 </r>
       <r>  -13.8787    1.0000 </r>
       <r>   -8.3403    1.0000 </r>
       <r>   -3.0940    1.0000 </r>
       <r>    1.0574   -0.0000 </r>
       <r>    8.0925    0.0000 </r>
       <r>   10.5508    0.0000 </r>
       <r>   10.7452    0.0000 </r>
      </set>
      <set comment="kpoint 32">
       <r>  -17.0934    1.0000 </r>
       <r>  -10.6872    1.0000 </r>
       <r>   -8.9031    1.0000 </r>
       <r>   -4.5366    1.0000 </r>
       <r>    3.1371   -0.0000 </r>
       <r>    7.0850    0.0000 </r>
       <r>    8.4852    0.0000 </r>
       <r>    9.8732    0.0000 </r>
      </set>
      <set comment="kpoint 33">
       <r>  -17.0791    1.0000 </r>
       <r>  -10.3806    1.0000 </r>
       <r>   -9.2516    1.0000 </r>
       <r>   -4.6192    1.0000 </r>
       <r>    3.3770    0.0000 </r>
       <r>    7.0835    0.0000 </r>
       <r>    8.4437    0.0000 </r>
       <r>    9.8258    0.0000 </r>
      </set>
      <set comment="kpoint 34">
       <r>  -17.0864    1.0000 </r>
       <r>  -10.5493    1.0000 </r>
       <r>   -9.0651    1.0000 </r>
       <r>   -4.5774    1.0000 </r>
       <r>    3.2534    0.0000 </r>
       <r>    7.0848    0.0000 </r>
       <r>    8.4661    0.0000 </r>
       <r>    9.8611    0.0000 </r>
      </set>
      <set comment="kpoint 35">
       <r>  -15.1882    1.0000 </r>
       <r>  -12.8259    1.0000 </r>
       <r>   -9.9548    1.0000 </r>
       <r>   -2.5362    1.0000 </r>
       <r>    0.7693   -0.0000 </r>
       <r>    9.8345    0.0000 </r>
       <r>   10.3180    0.0000 </r>
       <r>   11.1214    0.0000 </r>
      </set>
      <set comment="kpoint 36">
       <r>  -15.1961    1.0000 </r>
       <r>  -12.6720    1.0000 </r>
       <r>  -10.1202    1.0000 </r>
       <r>   -2.7023    1.0000 </r>
       <r>    1.0387   -0.0000 </r>
       <r>    9.8249    0.0000 </r>
       <r>   10.2070    0.0000 </r>
       <r>   10.9791    0.0000 </r>
      </set>
      <set comment="kpoint 37">
       <r>  -15.2092    1.0000 </r>
       <r>  -12.6070    1.0000 </r>
       <r>  -10.1828    1.0000 </r>
       <r>   -2.7209    1.0000 </r>
       <r>    1.0666   -0.0000 </r>
       <r>    9.8398    0.0000 </r>
       <r>   10.2326    0.0000 </r>
       <r>   10.9919    0.0000 </r>
      </set>
      <set comment="kpoint 38">
       <r>  -15.2073    1.0000 </r>
       <r>  -12.5716    1.0000 </r>
       <r>  -10.2231    1.0000 </r>
       <r>   -2.7648    1.0000 </r>
       <r>    1.1425   -0.0000 </r>
       <r>    9.8316    0.0000 </r>
       <r>   10.1854    0.0000 </r>
       <r>   10.9422    0.0000 </r>
      </set>
      <set comment="kpoint 39">
       <r>  -15.1993    1.0000 </r>
       <r>  -12.7374    1.0000 </r>
       <r>  -10.0435    1.0000 </r>
       <r>   -2.6102    1.0000 </r>
       <r>    0.8853   -0.0000 </r>
       <r>    9.8383    0.0000 </r>
       <r>   10.2976    0.0000 </r>
       <r>   11.0294    0.0000 </r>
      </set>
      <set comment="kpoint 40">
       <r>  -15.1869    1.0000 </r>
       <r>  -12.7952    1.0000 </r>
       <r>   -9.9920    1.0000 </r>
       <r>   -2.5849    1.0000 </r>
       <r>    0.8474   -0.0000 </r>
       <r>    9.8297    0.0000 </r>
       <r>   10.2747    0.0000 </r>
       <r>   11.1223    0.0000 </r>
      </set>
      <set comment="kpoint 41">
       <r>  -13.6100    1.0000 </r>
       <r>  -13.3740    1.0000 </r>
       <r>  -11.5738    1.0000 </r>
       <r>   -0.9623    0.9950 </r>
       <r>   -0.6343    0.0050 </r>
       <r>    9.8918    0.0000 </r>
       <r>   12.1416    0.0000 </r>
       <r>   12.3591    0.0000 </r>
      </set>
     </set>
    </set>
   </array>
  </eigenvalues>
  <separator name="orbital magnetization" >
   <v name="MAGDIPOLOUT">      0.00000000      0.00000000      0.00000000</v>
  </separator>
  <dos>
   <i name="efermi">     -0.79829036 </i>
   <total>
    <array>
     <dimension dim="1">gridpoints</dimension>
     <dimension dim="2">spin</dimension>
     <field>energy</field>
     <field>total</field>
     <field>integrated</field>
     <set>
      <set comment="spin 1">
       <r>   -22.5655     0.0000     0.0000 </r>
       <r>   -22.4424     0.0000     0.0000 </r>
       <r>   -22.3194     0.0000     0.0000 </r>
       <r>   -22.1963    -0.0000    -0.0000 </r>
       <r>   -22.0732    -0.0000    -0.0000 </r>
       <r>   -21.9501    -0.0000    -0.0000 </r>
       <r>   -21.8270    -0.0000    -0.0000 </r>
       <r>   -21.7040    -0.0000    -0.0000 </r>
       <r>   -21.5809    -0.0000    -0.0000 </r>
       <r>   -21.4578    -0.0000    -0.0000 </r>
       <r>   -21.3347    -0.0000    -0.0000 </r>
       <r>   -21.2116    -0.0000    -0.0000 </r>
       <r>   -21.0885    -0.0001    -0.0000 </r>
       <r>   -20.9655    -0.0015    -0.0002 </r>
       <r>   -20.8424    -0.0051    -0.0008 </r>
       <r>   -20.7193     0.0065    -0.0000 </r>
       <r>   -20.5962     0.0491     0.0060 </r>
       <r>   -20.4731     0.0888     0.0169 </r>
       <r>   -20.3500     0.2937     0.0531 </r>
       <r>   -20.2270     0.5836     0.1249 </r>
       <r>   -20.1039     0.3792     0.1716 </r>
       <r>   -19.9808     0.0136     0.1733 </r>
       <r>   -19.8577    -0.0102     0.1720 </r>
       <r>   -19.7346     0.3181     0.2112 </r>
       <r>   -19.6116     0.5729     0.2817 </r>
       <r>   -19.4885     0.4897     0.3419 </r>
       <r>   -19.3654     0.5629     0.4112 </r>
       <r>   -19.2423     0.4338     0.4646 </r>
       <r>   -19.1192     0.0778     0.4742 </r>
       <r>   -18.9961    -0.0336     0.4701 </r>
       <r>   -18.8731    -0.0407     0.4650 </r>
       <r>   -18.7500    -0.0513     0.4587 </r>
       <r>   -18.6269     0.3068     0.4965 </r>
       <r>   -18.5038     1.0656     0.6276 </r>
       <r>   -18.3807     0.9796     0.7482 </r>
       <r>   -18.2577     0.1972     0.7725 </r>
       <r>   -18.1346    -0.0596     0.7651 </r>
       <r>   -18.0115     0.2486     0.7957 </r>
       <r>   -17.8884     0.5870     0.8680 </r>
       <r>   -17.7653     0.3721     0.9138 </r>
       <r>   -17.6422     0.0330     0.9179 </r>
       <r>   -17.5192    -0.0328     0.9138 </r>
       <r>   -17.3961    -0.0322     0.9098 </r>
       <r>   -17.2730     0.0050     0.9105 </r>
       <r>   -17.1499     0.2789     0.9448 </r>
       <r>   -17.0268     0.5572     1.0134 </r>
       <r>   -16.9037     0.7305     1.1033 </r>
       <r>   -16.7807     1.1433     1.2440 </r>
       <r>   -16.6576     0.8646     1.3504 </r>
       <r>   -16.5345     0.1420     1.3679 </r>
       <r>   -16.4114    -0.0654     1.3598 </r>
       <r>   -16.2883    -0.0464     1.3541 </r>
       <r>   -16.1653     0.0228     1.3569 </r>
       <r>   -16.0422     0.3522     1.4003 </r>
       <r>   -15.9191     0.5929     1.4733 </r>
       <r>   -15.7960     0.2926     1.5093 </r>
       <r>   -15.6729    -0.0014     1.5091 </r>
       <r>   -15.5498    -0.0586     1.5019 </r>
       <r>   -15.4268    -0.0553     1.4951 </r>
       <r>   -15.3037     0.3384     1.5367 </r>
       <r>   -15.1806     1.1523     1.6786 </r>
       <r>   -15.0575     1.2556     1.8331 </r>
       <r>   -14.9344     0.6922     1.9183 </r>
       <r>   -14.8114     0.2605     1.9504 </r>
       <r>   -14.6883     0.0311     1.9542 </r>
       <r>   -14.5652    -0.0275     1.9508 </r>
       <r>   -14.4421    -0.0172     1.9487 </r>
       <r>   -14.3190     0.0536     1.9553 </r>
       <r>   -14.1959     0.1982     1.9797 </r>
       <r>   -14.0729     0.2883     2.0152 </r>
       <r>   -13.9498     0.3077     2.0530 </r>
       <r>   -13.8267     0.2544     2.0844 </r>
       <r>   -13.7036     0.1613     2.1042 </r>
       <r>   -13.5805     0.1915     2.1278 </r>
       <r>   -13.4575     0.3778     2.1743 </r>
       <r>   -13.3344     0.6191     2.2505 </r>
       <r>   -13.2113     0.5525     2.3185 </r>
       <r>   -13.0882     0.1978     2.3429 </r>
       <r>   -12.9651     0.0280     2.3463 </r>
       <r>   -12.8420     0.3161     2.3852 </r>
       <r>   -12.7190     0.7618     2.4790 </r>
       <r>   -12.5959     0.8285     2.5810 </r>
       <r>   -12.4728     0.4606     2.6376 </r>
       <r>   -12.3497     0.0724     2.6466 </r>
       <r>   -12.2266    -0.0545     2.6399 </r>
       <r>   -12.1035    -0.0221     2.6371 </r>
       <r>   -11.9805     0.2627     2.6695 </r>
       <r>   -11.8574     0.7533     2.7622 </r>
       <r>   -11.7343     0.9142     2.8747 </r>
       <r>   -11.6112     0.6269     2.9519 </r>
       <r>   -11.4881     0.2675     2.9848 </r>
       <r>   -11.3651     0.0483     2.9907 </r>
       <r>   -11.2420    -0.0157     2.9888 </r>
       <r>   -11.1189    -0.0108     2.9875 </r>
       <r>   -10.9958    -0.0169     2.9854 </r>
       <r>   -10.8727    -0.0197     2.9830 </r>
       <r>   -10.7496     0.1378     2.9999 </r>
       <r>   -10.6266     0.5124     3.0630 </r>
       <r>   -10.5035     0.7512     3.1555 </r>
       <r>   -10.3804     0.6748     3.2385 </r>
       <r>   -10.2573     0.5719     3.3089 </r>
       <r>   -10.1342     0.6976     3.3948 </r>
       <r>   -10.0112     0.8152     3.4951 </r>
       <r>    -9.8881     0.5777     3.5662 </r>
       <r>    -9.7650     0.1575     3.5856 </r>
       <r>    -9.6419    -0.0283     3.5821 </r>
       <r>    -9.5188    -0.0412     3.5770 </r>
       <r>    -9.3957    -0.0084     3.5760 </r>
       <r>    -9.2727     0.2419     3.6058 </r>
       <r>    -9.1496     0.7075     3.6929 </r>
       <r>    -9.0265     0.9881     3.8145 </r>
       <r>    -8.9034     0.9614     3.9328 </r>
       <r>    -8.7803     0.6386     4.0114 </r>
       <r>    -8.6573     0.2110     4.0374 </r>
       <r>    -8.5342     0.0289     4.0409 </r>
       <r>    -8.4111     0.1846     4.0637 </r>
       <r>    -8.2880     0.7160     4.1518 </r>
       <r>    -8.1649     1.0049     4.2755 </r>
       <r>    -8.0418     0.8778     4.3835 </r>
       <r>    -7.9188     0.7699     4.4783 </r>
       <r>    -7.7957     0.7762     4.5738 </r>
       <r>    -7.6726     0.8925     4.6837 </r>
       <r>    -7.5495     0.9723     4.8033 </r>
       <r>    -7.4264     0.8132     4.9034 </r>
       <r>    -7.3033     0.8682     5.0103 </r>
       <r>    -7.1803     1.3094     5.1715 </r>
       <r>    -7.0572     1.2231     5.3220 </r>
       <r>    -6.9341     0.8021     5.4207 </r>
       <r>    -6.8110     0.8405     5.5242 </r>
       <r>    -6.6879     0.8577     5.6297 </r>
       <r>    -6.5649     0.6154     5.7055 </r>
       <r>    -6.4418     0.4023     5.7550 </r>
       <r>    -6.3187     0.5836     5.8268 </r>
       <r>    -6.1956     1.2003     5.9746 </r>
       <r>    -6.0725     1.0266     6.1009 </r>
       <r>    -5.9494     0.2760     6.1349 </r>
       <r>    -5.8264     0.1858     6.1578 </r>
       <r>    -5.7033     0.4519     6.2134 </r>
       <r>    -5.5802     0.8204     6.3144 </r>
       <r>    -5.4571     1.0335     6.4416 </r>
       <r>    -5.3340     0.7624     6.5354 </r>
       <r>    -5.2110     0.5083     6.5980 </r>
       <r>    -5.0879     0.3591     6.6422 </r>
       <r>    -4.9648     0.2160     6.6687 </r>
       <r>    -4.8417     0.1643     6.6890 </r>
       <r>    -4.7186     0.2244     6.7166 </r>
       <r>    -4.5955     0.5146     6.7799 </r>
       <r>    -4.4725     0.9023     6.8910 </r>
       <r>    -4.3494     1.2225     7.0414 </r>
       <r>    -4.2263     1.3153     7.2033 </r>
       <r>    -4.1032     0.8273     7.3051 </r>
       <r>    -3.9801     0.2379     7.3344 </r>
       <r>    -3.8570     0.0713     7.3432 </r>
       <r>    -3.7340     0.2674     7.3761 </r>
       <r>    -3.6109     0.4356     7.4297 </r>
       <r>    -3.4878     0.3858     7.4772 </r>
       <r>    -3.3647     0.1943     7.5011 </r>
       <r>    -3.2416     0.0545     7.5078 </r>
       <r>    -3.1186     0.1338     7.5243 </r>
       <r>    -2.9955     0.2794     7.5587 </r>
       <r>    -2.8724     0.4152     7.6098 </r>
       <r>    -2.7493     0.7640     7.7038 </r>
       <r>    -2.6262     1.0236     7.8298 </r>
       <r>    -2.5031     0.7675     7.9243 </r>
       <r>    -2.3801     0.2560     7.9558 </r>
       <r>    -2.2570    -0.0112     7.9544 </r>
       <r>    -2.1339    -0.0254     7.9513 </r>
       <r>    -2.0108    -0.0049     7.9507 </r>
       <r>    -1.8877    -0.0004     7.9506 </r>
       <r>    -1.7647    -0.0000     7.9506 </r>
       <r>    -1.6416    -0.0000     7.9506 </r>
       <r>    -1.5185    -0.0001     7.9506 </r>
       <r>    -1.3954    -0.0017     7.9504 </r>
       <r>    -1.2723    -0.0084     7.9494 </r>
       <r>    -1.1492     0.0031     7.9497 </r>
       <r>    -1.0262     0.1016     7.9622 </r>
       <r>    -0.9031     0.1885     7.9854 </r>
       <r>    -0.7800     0.1358     8.0022 </r>
       <r>    -0.6569     0.1554     8.0213 </r>
       <r>    -0.5338     0.1785     8.0433 </r>
       <r>    -0.4108     0.0632     8.0510 </r>
       <r>    -0.2877    -0.0067     8.0502 </r>
       <r>    -0.1646    -0.0060     8.0495 </r>
       <r>    -0.0415    -0.0009     8.0494 </r>
       <r>     0.0816    -0.0005     8.0493 </r>
       <r>     0.2047    -0.0041     8.0488 </r>
       <r>     0.3277    -0.0119     8.0474 </r>
       <r>     0.4508     0.0190     8.0497 </r>
       <r>     0.5739     0.1332     8.0661 </r>
       <r>     0.6970     0.3149     8.1049 </r>
       <r>     0.8201     0.6256     8.1819 </r>
       <r>     0.9432     0.8357     8.2847 </r>
       <r>     1.0662     0.8716     8.3920 </r>
       <r>     1.1893     0.7558     8.4850 </r>
       <r>     1.3124     0.4195     8.5367 </r>
       <r>     1.4355     0.2265     8.5645 </r>
       <r>     1.5586     0.2381     8.5938 </r>
       <r>     1.6816     0.2445     8.6239 </r>
       <r>     1.8047     0.1410     8.6413 </r>
       <r>     1.9278     0.0143     8.6431 </r>
       <r>     2.0509    -0.0149     8.6412 </r>
       <r>     2.1740     0.0239     8.6442 </r>
       <r>     2.2971     0.0976     8.6562 </r>
       <r>     2.4201     0.3097     8.6943 </r>
       <r>     2.5432     0.8003     8.7928 </r>
       <r>     2.6663     1.2696     8.9490 </r>
       <r>     2.7894     1.0343     9.0764 </r>
       <r>     2.9125     0.3185     9.1156 </r>
       <r>     3.0355     0.0258     9.1187 </r>
       <r>     3.1586     0.1920     9.1424 </r>
       <r>     3.2817     0.4369     9.1961 </r>
       <r>     3.4048     0.7245     9.2853 </r>
       <r>     3.5279     0.7215     9.3741 </r>
       <r>     3.6510     0.2816     9.4088 </r>
       <r>     3.7740     0.2886     9.4443 </r>
       <r>     3.8971     0.6219     9.5208 </r>
       <r>     4.0202     0.4888     9.5810 </r>
       <r>     4.1433     0.5716     9.6514 </r>
       <r>     4.2664     0.9798     9.7720 </r>
       <r>     4.3895     0.7291     9.8617 </r>
       <r>     4.5125     0.1701     9.8826 </r>
       <r>     4.6356    -0.0519     9.8762 </r>
       <r>     4.7587    -0.1063     9.8632 </r>
       <r>     4.8818     0.1279     9.8789 </r>
       <r>     5.0049     1.1925    10.0257 </r>
       <r>     5.1279     1.7706    10.2436 </r>
       <r>     5.2510     0.8395    10.3469 </r>
       <r>     5.3741     0.8005    10.4455 </r>
       <r>     5.4972     1.8002    10.6670 </r>
       <r>     5.6203     1.5953    10.8634 </r>
       <r>     5.7434     0.7095    10.9507 </r>
       <r>     5.8664     0.5147    11.0141 </r>
       <r>     5.9895     0.4552    11.0701 </r>
       <r>     6.1126     0.1944    11.0940 </r>
       <r>     6.2357     0.3676    11.1393 </r>
       <r>     6.3588     0.4727    11.1974 </r>
       <r>     6.4818     0.4115    11.2481 </r>
       <r>     6.6049     1.2463    11.4015 </r>
       <r>     6.7280     1.6817    11.6085 </r>
       <r>     6.8511     0.8739    11.7161 </r>
       <r>     6.9742     0.6460    11.7956 </r>
       <r>     7.0973     1.0187    11.9209 </r>
       <r>     7.2203     1.0109    12.0454 </r>
       <r>     7.3434     1.2161    12.1951 </r>
       <r>     7.4665     2.2947    12.4775 </r>
       <r>     7.5896     2.1944    12.7476 </r>
       <r>     7.7127     0.9140    12.8601 </r>
       <r>     7.8357     0.8569    12.9655 </r>
       <r>     7.9588     1.2466    13.1190 </r>
       <r>     8.0819     1.1808    13.2643 </r>
       <r>     8.2050     1.4589    13.4439 </r>
       <r>     8.3281     1.6759    13.6501 </r>
       <r>     8.4512     1.3658    13.8183 </r>
       <r>     8.5742     0.8681    13.9251 </r>
       <r>     8.6973     0.6067    13.9998 </r>
       <r>     8.8204     0.7404    14.0909 </r>
       <r>     8.9435     1.1450    14.2318 </r>
       <r>     9.0666     0.9783    14.3523 </r>
       <r>     9.1897     0.2332    14.3810 </r>
       <r>     9.3127    -0.0589    14.3737 </r>
       <r>     9.4358    -0.0528    14.3672 </r>
       <r>     9.5589    -0.0954    14.3555 </r>
       <r>     9.6820     0.1617    14.3754 </r>
       <r>     9.8051     1.2870    14.5338 </r>
       <r>     9.9281     1.8472    14.7611 </r>
       <r>    10.0512     1.0214    14.8868 </r>
       <r>    10.1743     1.0540    15.0166 </r>
       <r>    10.2974     1.4705    15.1976 </r>
       <r>    10.4205     0.8938    15.3076 </r>
       <r>    10.5436     0.5655    15.3772 </r>
       <r>    10.6666     0.8173    15.4778 </r>
       <r>    10.7897     0.7599    15.5713 </r>
       <r>    10.9128     0.6498    15.6513 </r>
       <r>    11.0359     0.9118    15.7635 </r>
       <r>    11.1590     0.8395    15.8668 </r>
       <r>    11.2820     0.3164    15.9058 </r>
       <r>    11.4051    -0.0017    15.9056 </r>
       <r>    11.5282    -0.0287    15.9021 </r>
       <r>    11.6513    -0.0067    15.9012 </r>
       <r>    11.7744    -0.0052    15.9006 </r>
       <r>    11.8975    -0.0100    15.8994 </r>
       <r>    12.0205     0.0388    15.9041 </r>
       <r>    12.1436     0.1678    15.9248 </r>
       <r>    12.2667     0.2429    15.9547 </r>
       <r>    12.3898     0.2331    15.9834 </r>
       <r>    12.5129     0.1326    15.9997 </r>
       <r>    12.6359     0.0159    16.0017 </r>
       <r>    12.7590    -0.0103    16.0004 </r>
       <r>    12.8821    -0.0030    16.0000 </r>
       <r>    13.0052    -0.0003    16.0000 </r>
       <r>    13.1283    -0.0000    16.0000 </r>
       <r>    13.2514    -0.0000    16.0000 </r>
       <r>    13.3744    -0.0000    16.0000 </r>
       <r>    13.4975    -0.0000    16.0000 </r>
       <r>    13.6206    -0.0000    16.0000 </r>
       <r>    13.7437     0.0000    16.0000 </r>
       <r>    13.8668     0.0000    16.0000 </r>
       <r>    13.9899     0.0000    16.0000 </r>
       <r>    14.1129     0.0000    16.0000 </r>
       <r>    14.2360     0.0000    16.0000 </r>
       <r>    14.3591     0.0000    16.0000 </r>
      </set>
     </set>
    </array>
   </total>
  </dos>
 </calculation>
 <structure name="finalpos" >
  <crystal>
   <varray name="basis" >
    <v>       2.44104624       0.00000000       0.00000000 </v>
    <v>      -1.22052312       2.11400806       0.00000000 </v>
    <v>       0.00000000       0.00000000      10.00000000 </v>
   </varray>
   <i name="volume">     51.60391413 </i>
   <varray name="rec_basis" >
    <v>       0.40966041       0.23651755      -0.00000000 </v>
    <v>       0.00000000       0.47303509       0.00000000 </v>
    <v>       0.00000000      -0.00000000       0.10000000 </v>
   </varray>
  </crystal>
  <varray name="positions" >
   <v>       0.08931178       0.09952724       0.51075395 </v>
   <v>       0.43268822       0.76647276       0.50924605 </v>
  </varray>
  <varray name="velocities" >
   <v>      -0.00006440      -0.00000410       0.00016335 </v>
   <v>       0.00006440       0.00000410      -0.00016335 </v>
  </varray>
 </structure>
</modeling>
