unknown system                          
           1
     2.441046    0.000000    0.000000
    -1.220523    2.114008    0.000000
     0.000000    0.000000   10.000000
   C 
     2
Direct configuration=     1
   0.10000000  0.10000000  0.50000000
   0.42200000  0.76600000  0.52000000
Direct configuration=     2
   0.09999592  0.09999991  0.50000268
   0.42200408  0.76600009  0.51999732
Direct configuration=     3
   0.09998775  0.09999974  0.50000805
   0.42201225  0.76600026  0.51999195
Direct configuration=     4
   0.09997552  0.09999948  0.50001610
   0.42202448  0.76600052  0.51998390
Direct configuration=     5
   0.09995922  0.09999913  0.50002683
   0.42204078  0.76600087  0.51997317
Direct configuration=     6
   0.09993887  0.09999870  0.50004023
   0.42206113  0.76600130  0.51995977
Direct configuration=     7
   0.09991448  0.09999817  0.50005631
   0.42208552  0.76600183  0.51994369
Direct configuration=     8
   0.09988608  0.09999756  0.50007505
   0.42211392  0.76600244  0.51992495
Direct configuration=     9
   0.09985369  0.09999686  0.50009646
   0.42214631  0.76600314  0.51990354
Direct configuration=    10
   0.09981733  0.09999607  0.50012053
   0.42218267  0.76600393  0.51987947
Direct configuration=    11
   0.09977703  0.09999519  0.50014724
   0.42222297  0.76600481  0.51985276
Direct configuration=    12
   0.09973282  0.09999421  0.50017660
   0.42226718  0.76600579  0.51982340
Direct configuration=    13
   0.09968473  0.09999315  0.50020860
   0.42231527  0.76600685  0.51979140
Direct configuration=    14
   0.09963280  0.09999199  0.50024323
   0.42236720  0.76600801  0.51975677
Direct configuration=    15
   0.09957708  0.09999074  0.50028048
   0.42242292  0.76600926  0.51971952
Direct configuration=    16
   0.09951760  0.09998939  0.50032033
   0.42248240  0.76601061  0.51967967
Direct configuration=    17
   0.09945442  0.09998794  0.50036278
   0.42254558  0.76601206  0.51963722
Direct configuration=    18
   0.09938757  0.09998638  0.50040782
   0.42261243  0.76601362  0.51959218
Direct configuration=    19
   0.09931712  0.09998473  0.50045544
   0.42268288  0.76601527  0.51954456
Direct configuration=    20
   0.09924312  0.09998297  0.50050561
   0.42275688  0.76601703  0.51949439
Direct configuration=    21
   0.09916561  0.09998109  0.50055834
   0.42283439  0.76601891  0.51944166
Direct configuration=    22
   0.09908467  0.09997911  0.50061360
   0.42291533  0.76602089  0.51938640
Direct configuration=    23
   0.09900036  0.09997701  0.50067138
   0.42299964  0.76602299  0.51932862
Direct configuration=    24
   0.09891273  0.09997480  0.50073166
   0.42308727  0.76602520  0.51926834
Direct configuration=    25
   0.09882185  0.09997248  0.50079443
   0.42317815  0.76602752  0.51920557
Direct configuration=    26
   0.09872780  0.09997003  0.50085968
   0.42327220  0.76602997  0.51914032
Direct configuration=    27
   0.09863064  0.09996745  0.50092737
   0.42336936  0.76603255  0.51907263
Direct configuration=    28
   0.09853044  0.09996475  0.50099751
   0.42346956  0.76603525  0.51900249
Direct configuration=    29
   0.09842728  0.09996192  0.50107006
   0.42357272  0.76603808  0.51892994
Direct configuration=    30
   0.09832123  0.09995896  0.50114500
   0.42367877  0.76604104  0.51885500
Direct configuration=    31
   0.09821238  0.09995586  0.50122233
   0.42378762  0.76604414  0.51877767
Direct configuration=    32
   0.09810081  0.09995262  0.50130202
   0.42389919  0.76604738  0.51869798
Direct configuration=    33
   0.09798659  0.09994924  0.50138404
   0.42401341  0.76605076  0.51861596
Direct configuration=    34
   0.09786980  0.09994572  0.50146838
   0.42413020  0.76605428  0.51853162
Direct configuration=    35
   0.09775054  0.09994205  0.50155501
   0.42424946  0.76605795  0.51844499
Direct configuration=    36
   0.09762889  0.09993823  0.50164391
   0.42437111  0.76606177  0.51835609
Direct configuration=    37
   0.09750493  0.09993427  0.50173505
   0.42449507  0.76606573  0.51826495
Direct configuration=    38
   0.09737877  0.09993017  0.50182842
   0.42462123  0.76606983  0.51817158
Direct configuration=    39
   0.09725048  0.09992591  0.50192398
   0.42474952  0.76607409  0.51807602
Direct configuration=    40
   0.09712017  0.09992150  0.50202170
   0.42487983  0.76607850  0.51797830
Direct configuration=    41
   0.09698792  0.09991693  0.50212157
   0.42501208  0.76608307  0.51787843
Direct configuration=    42
   0.09685383  0.09991222  0.50222356
   0.42514617  0.76608778  0.51777644
Direct configuration=    43
   0.09671799  0.09990734  0.50232763
   0.42528201  0.76609266  0.51767237
Direct configuration=    44
   0.09658050  0.09990231  0.50243377
   0.42541950  0.76609769  0.51756623
Direct configuration=    45
   0.09644146  0.09989714  0.50254193
   0.42555854  0.76610286  0.51745807
Direct configuration=    46
   0.09630098  0.09989182  0.50265210
   0.42569902  0.76610818  0.51734790
Direct configuration=    47
   0.09615913  0.09988635  0.50276424
   0.42584087  0.76611365  0.51723576
Direct configuration=    48
   0.09601604  0.09988074  0.50287832
   0.42598396  0.76611926  0.51712168
Direct configuration=    49
   0.09587179  0.09987499  0.50299431
   0.42612821  0.76612501  0.51700569
Direct configuration=    50
   0.09572649  0.09986910  0.50311218
   0.42627351  0.76613090  0.51688782
Direct configuration=    51
   0.09558023  0.09986308  0.50323190
   0.42641977  0.76613692  0.51676810
Direct configuration=    52
   0.09543313  0.09985693  0.50335344
   0.42656687  0.76614307  0.51664656
Direct configuration=    53
   0.09528527  0.09985066  0.50347676
   0.42671473  0.76614934  0.51652324
Direct configuration=    54
   0.09513675  0.09984426  0.50360183
   0.42686325  0.76615574  0.51639817
Direct configuration=    55
   0.09498769  0.09983775  0.50372862
   0.42701231  0.76616225  0.51627138
Direct configuration=    56
   0.09483816  0.09983113  0.50385709
   0.42716184  0.76616887  0.51614291
Direct configuration=    57
   0.09468829  0.09982441  0.50398720
   0.42731171  0.76617559  0.51601280
Direct configuration=    58
   0.09453817  0.09981758  0.50411893
   0.42746183  0.76618242  0.51588107
Direct configuration=    59
   0.09438790  0.09981065  0.50425223
   0.42761210  0.76618935  0.51574777
Direct configuration=    60
   0.09423759  0.09980363  0.50438708
   0.42776241  0.76619637  0.51561292
Direct configuration=    61
   0.09408733  0.09979653  0.50452342
   0.42791267  0.76620347  0.51547658
Direct configuration=    62
   0.09393724  0.09978934  0.50466124
   0.42806276  0.76621066  0.51533876
Direct configuration=    63
   0.09378741  0.09978207  0.50480048
   0.42821259  0.76621793  0.51519952
Direct configuration=    64
   0.09363795  0.09977472  0.50494111
   0.42836205  0.76622528  0.51505889
Direct configuration=    65
   0.09348895  0.09976731  0.50508309
   0.42851105  0.76623269  0.51491691
Direct configuration=    66
   0.09334053  0.09975983  0.50522639
   0.42865947  0.76624017  0.51477361
Direct configuration=    67
   0.09319279  0.09975230  0.50537097
   0.42880721  0.76624770  0.51462903
Direct configuration=    68
   0.09304584  0.09974473  0.50551679
   0.42895416  0.76625527  0.51448321
Direct configuration=    69
   0.09289977  0.09973711  0.50566380
   0.42910023  0.76626289  0.51433620
Direct configuration=    70
   0.09275470  0.09972946  0.50581197
   0.42924530  0.76627054  0.51418803
Direct configuration=    71
   0.09261072  0.09972179  0.50596126
   0.42938928  0.76627821  0.51403874
Direct configuration=    72
   0.09246796  0.09971412  0.50611163
   0.42953204  0.76628588  0.51388837
Direct configuration=    73
   0.09232650  0.09970646  0.50626304
   0.42967350  0.76629354  0.51373696
Direct configuration=    74
   0.09218646  0.09969880  0.50641544
   0.42981354  0.76630120  0.51358456
Direct configuration=    75
   0.09204794  0.09969116  0.50656881
   0.42995206  0.76630884  0.51343119
Direct configuration=    76
   0.09191104  0.09968354  0.50672309
   0.43008896  0.76631646  0.51327691
Direct configuration=    77
   0.09177589  0.09967596  0.50687824
   0.43022411  0.76632404  0.51312176
Direct configuration=    78
   0.09164257  0.09966841  0.50703423
   0.43035743  0.76633159  0.51296577
Direct configuration=    79
   0.09151120  0.09966092  0.50719100
   0.43048880  0.76633908  0.51280900
Direct configuration=    80
   0.09138187  0.09965349  0.50734853
   0.43061813  0.76634651  0.51265147
Direct configuration=    81
   0.09125469  0.09964612  0.50750676
   0.43074531  0.76635388  0.51249324
Direct configuration=    82
   0.09112977  0.09963883  0.50766566
   0.43087023  0.76636117  0.51233434
Direct configuration=    83
   0.09100719  0.09963163  0.50782518
   0.43099281  0.76636837  0.51217482
Direct configuration=    84
   0.09088708  0.09962452  0.50798528
   0.43111292  0.76637548  0.51201472
Direct configuration=    85
   0.09076953  0.09961752  0.50814592
   0.43123047  0.76638248  0.51185408
Direct configuration=    86
   0.09065462  0.09961064  0.50830705
   0.43134538  0.76638936  0.51169295
Direct configuration=    87
   0.09054247  0.09960387  0.50846863
   0.43145753  0.76639613  0.51153137
Direct configuration=    88
   0.09043317  0.09959724  0.50863062
   0.43156683  0.76640276  0.51136938
Direct configuration=    89
   0.09032680  0.09959075  0.50879298
   0.43167320  0.76640925  0.51120702
Direct configuration=    90
   0.09022347  0.09958441  0.50895566
   0.43177653  0.76641559  0.51104434
Direct configuration=    91
   0.09012326  0.09957824  0.50911861
   0.43187674  0.76642176  0.51088139
Direct configuration=    92
   0.09002628  0.09957224  0.50928181
   0.43197372  0.76642776  0.51071819
Direct configuration=    93
   0.08993259  0.09956641  0.50944519
   0.43206741  0.76643359  0.51055481
Direct configuration=    94
   0.08984229  0.09956077  0.50960873
   0.43215771  0.76643923  0.51039127
Direct configuration=    95
   0.08975547  0.09955533  0.50977237
   0.43224453  0.76644467  0.51022763
Direct configuration=    96
   0.08967220  0.09955009  0.50993607
   0.43232780  0.76644991  0.51006393
Direct configuration=    97
   0.08959256  0.09954506  0.51009979
   0.43240744  0.76645494  0.50990021
Direct configuration=    98
   0.08951663  0.09954025  0.51026348
   0.43248337  0.76645975  0.50973652
Direct configuration=    99
   0.08944448  0.09953568  0.51042710
   0.43255552  0.76646432  0.50957290
Direct configuration=   100
   0.08937618  0.09953134  0.51059060
   0.43262382  0.76646866  0.50940940
