   2   2   1   0
  0.1200000E+02  0.2000000E-09  0.3000000E-09  0.4000000E-09  0.5000000E-15
  1.000000000000000E-004
  CAR 
 unknown system                          
     22.90248420    -27.39737446  400      1.85360068      1.00000000
    -27.397  0.0000E+00  0.0000E+00
    -27.271  0.0000E+00  0.0000E+00
    -27.145  0.0000E+00  0.0000E+00
    -27.019  0.0000E+00  0.0000E+00
    -26.893  0.0000E+00  0.0000E+00
    -26.767  0.0000E+00  0.0000E+00
    -26.641  0.0000E+00  0.0000E+00
    -26.515  0.0000E+00  0.0000E+00
    -26.389  0.0000E+00  0.0000E+00
    -26.263  0.0000E+00  0.0000E+00
    -26.137  0.0000E+00  0.0000E+00
    -26.011  0.0000E+00  0.0000E+00
    -25.885  0.0000E+00  0.0000E+00
    -25.759  0.0000E+00  0.0000E+00
    -25.632  0.6471E-12  0.8157E-13
    -25.506  0.8844E-07  0.1115E-07
    -25.380  0.5504E-03  0.6939E-04
    -25.254  0.1685E+00  0.2131E-01
    -25.128  0.3031E+01  0.4034E+00
    -25.002  0.4241E+01  0.9380E+00
    -24.876  0.4892E+00  0.9997E+00
    -24.750  0.2239E+00  0.1028E+01
    -24.624  0.3335E+01  0.1448E+01
    -24.498  0.3986E+01  0.1951E+01
    -24.372  0.3878E+00  0.2000E+01
    -24.246  0.2344E-02  0.2000E+01
    -24.120  0.7157E-06  0.2000E+01
    -23.994  0.1006E-10  0.2000E+01
    -23.868  0.0000E+00  0.2000E+01
    -23.741  0.0000E+00  0.2000E+01
    -23.615  0.0000E+00  0.2000E+01
    -23.489  0.0000E+00  0.2000E+01
    -23.363  0.0000E+00  0.2000E+01
    -23.237  0.0000E+00  0.2000E+01
    -23.111  0.0000E+00  0.2000E+01
    -22.985  0.0000E+00  0.2000E+01
    -22.859  0.0000E+00  0.2000E+01
    -22.733  0.0000E+00  0.2000E+01
    -22.607  0.0000E+00  0.2000E+01
    -22.481  0.0000E+00  0.2000E+01
    -22.355  0.0000E+00  0.2000E+01
    -22.229  0.0000E+00  0.2000E+01
    -22.103  0.0000E+00  0.2000E+01
    -21.977  0.0000E+00  0.2000E+01
    -21.851  0.0000E+00  0.2000E+01
    -21.724  0.0000E+00  0.2000E+01
    -21.598  0.0000E+00  0.2000E+01
    -21.472  0.0000E+00  0.2000E+01
    -21.346  0.0000E+00  0.2000E+01
    -21.220  0.0000E+00  0.2000E+01
    -21.094  0.0000E+00  0.2000E+01
    -20.968  0.0000E+00  0.2000E+01
    -20.842  0.0000E+00  0.2000E+01
    -20.716  0.0000E+00  0.2000E+01
    -20.590  0.0000E+00  0.2000E+01
    -20.464  0.0000E+00  0.2000E+01
    -20.338  0.0000E+00  0.2000E+01
    -20.212  0.0000E+00  0.2000E+01
    -20.086  0.0000E+00  0.2000E+01
    -19.960  0.0000E+00  0.2000E+01
    -19.833  0.0000E+00  0.2000E+01
    -19.707  0.0000E+00  0.2000E+01
    -19.581  0.0000E+00  0.2000E+01
    -19.455  0.0000E+00  0.2000E+01
    -19.329  0.0000E+00  0.2000E+01
    -19.203  0.0000E+00  0.2000E+01
    -19.077  0.0000E+00  0.2000E+01
    -18.951  0.0000E+00  0.2000E+01
    -18.825  0.0000E+00  0.2000E+01
    -18.699  0.0000E+00  0.2000E+01
    -18.573  0.0000E+00  0.2000E+01
    -18.447  0.0000E+00  0.2000E+01
    -18.321  0.0000E+00  0.2000E+01
    -18.195  0.0000E+00  0.2000E+01
    -18.069  0.0000E+00  0.2000E+01
    -17.943  0.0000E+00  0.2000E+01
    -17.816  0.0000E+00  0.2000E+01
    -17.690  0.0000E+00  0.2000E+01
    -17.564  0.0000E+00  0.2000E+01
    -17.438  0.0000E+00  0.2000E+01
    -17.312  0.0000E+00  0.2000E+01
    -17.186  0.0000E+00  0.2000E+01
    -17.060  0.0000E+00  0.2000E+01
    -16.934  0.0000E+00  0.2000E+01
    -16.808  0.0000E+00  0.2000E+01
    -16.682  0.0000E+00  0.2000E+01
    -16.556  0.0000E+00  0.2000E+01
    -16.430  0.0000E+00  0.2000E+01
    -16.304  0.0000E+00  0.2000E+01
    -16.178  0.0000E+00  0.2000E+01
    -16.052  0.0000E+00  0.2000E+01
    -15.925  0.0000E+00  0.2000E+01
    -15.799  0.0000E+00  0.2000E+01
    -15.673  0.0000E+00  0.2000E+01
    -15.547  0.0000E+00  0.2000E+01
    -15.421  0.0000E+00  0.2000E+01
    -15.295  0.0000E+00  0.2000E+01
    -15.169  0.0000E+00  0.2000E+01
    -15.043  0.0000E+00  0.2000E+01
    -14.917  0.0000E+00  0.2000E+01
    -14.791  0.0000E+00  0.2000E+01
    -14.665  0.0000E+00  0.2000E+01
    -14.539  0.0000E+00  0.2000E+01
    -14.413  0.0000E+00  0.2000E+01
    -14.287  0.0000E+00  0.2000E+01
    -14.161  0.0000E+00  0.2000E+01
    -14.035  0.0000E+00  0.2000E+01
    -13.908  0.0000E+00  0.2000E+01
    -13.782  0.0000E+00  0.2000E+01
    -13.656  0.0000E+00  0.2000E+01
    -13.530  0.0000E+00  0.2000E+01
    -13.404  0.0000E+00  0.2000E+01
    -13.278  0.0000E+00  0.2000E+01
    -13.152  0.0000E+00  0.2000E+01
    -13.026  0.0000E+00  0.2000E+01
    -12.900  0.0000E+00  0.2000E+01
    -12.774  0.0000E+00  0.2000E+01
    -12.648  0.0000E+00  0.2000E+01
    -12.522  0.0000E+00  0.2000E+01
    -12.396  0.0000E+00  0.2000E+01
    -12.270  0.0000E+00  0.2000E+01
    -12.144  0.0000E+00  0.2000E+01
    -12.017  0.0000E+00  0.2000E+01
    -11.891  0.0000E+00  0.2000E+01
    -11.765  0.0000E+00  0.2000E+01
    -11.639  0.4331E-12  0.2000E+01
    -11.513  0.6495E-07  0.2000E+01
    -11.387  0.4429E-03  0.2000E+01
    -11.261  0.1481E+00  0.2019E+01
    -11.135  0.2888E+01  0.2383E+01
    -11.009  0.4350E+01  0.2931E+01
    -10.883  0.5415E+00  0.2999E+01
    -10.757  0.4300E-02  0.3000E+01
    -10.631  0.7793E-05  0.3000E+01
    -10.505  0.9847E-02  0.3001E+01
    -10.379  0.8392E+00  0.3107E+01
    -10.253  0.4747E+01  0.3706E+01
    -10.126  0.2256E+01  0.3990E+01
    -10.000  0.7984E-01  0.4000E+01
     -9.874  0.1597E-03  0.4000E+01
     -9.748  0.1543E-07  0.4000E+01
     -9.622  0.6781E-13  0.4000E+01
     -9.496  0.0000E+00  0.4000E+01
     -9.370  0.0000E+00  0.4000E+01
     -9.244  0.0000E+00  0.4000E+01
     -9.118  0.0000E+00  0.4000E+01
     -8.992  0.0000E+00  0.4000E+01
     -8.866  0.0000E+00  0.4000E+01
     -8.740  0.0000E+00  0.4000E+01
     -8.614  0.0000E+00  0.4000E+01
     -8.488  0.0000E+00  0.4000E+01
     -8.362  0.0000E+00  0.4000E+01
     -8.236  0.2422E-14  0.4000E+01
     -8.109  0.1201E-08  0.4000E+01
     -7.983  0.2510E-04  0.4000E+01
     -7.857  0.2488E-01  0.4003E+01
     -7.731  0.1331E+01  0.4171E+01
     -7.605  0.4968E+01  0.4797E+01
     -7.479  0.1616E+01  0.5001E+01
     -7.353  0.1756E+01  0.5222E+01
     -7.227  0.4944E+01  0.5846E+01
     -7.101  0.1204E+01  0.5997E+01
     -6.975  0.2023E-01  0.6000E+01
     -6.849  0.9605E-02  0.6001E+01
     -6.723  0.8276E+00  0.6106E+01
     -6.597  0.4737E+01  0.6703E+01
     -6.471  0.2276E+01  0.6990E+01
     -6.345  0.8159E-01  0.7000E+01
     -6.218  0.1654E-03  0.7000E+01
     -6.092  0.1622E-07  0.7000E+01
     -5.966  0.7178E-13  0.7000E+01
     -5.840  0.9170E-13  0.7000E+01
     -5.714  0.1958E-07  0.7000E+01
     -5.588  0.1893E-03  0.7000E+01
     -5.462  0.8863E-01  0.7011E+01
     -5.336  0.2356E+01  0.7308E+01
     -5.210  0.4695E+01  0.7900E+01
     -5.084  0.7839E+00  0.7999E+01
     -4.958  0.1389E-01  0.8001E+01
     -4.832  0.6024E+00  0.8077E+01
     -4.706  0.4455E+01  0.8638E+01
     -4.580  0.2740E+01  0.8984E+01
     -4.454  0.1475E+00  0.9002E+01
     -4.328  0.1141E+01  0.9146E+01
     -4.201  0.4924E+01  0.9767E+01
     -4.075  0.1802E+01  0.9994E+01
     -3.949  0.4779E-01  0.1000E+02
     -3.823  0.7021E-04  0.1000E+02
     -3.697  0.4951E-08  0.1000E+02
     -3.571  0.1585E-13  0.1000E+02
     -3.445  0.0000E+00  0.1000E+02
     -3.319  0.0000E+00  0.1000E+02
     -3.193  0.0000E+00  0.1000E+02
     -3.067  0.0000E+00  0.1000E+02
     -2.941  0.0000E+00  0.1000E+02
     -2.815  0.0000E+00  0.1000E+02
     -2.689  0.0000E+00  0.1000E+02
     -2.563  0.0000E+00  0.1000E+02
     -2.437  0.0000E+00  0.1000E+02
     -2.310  0.0000E+00  0.1000E+02
     -2.184  0.0000E+00  0.1000E+02
     -2.058  0.0000E+00  0.1000E+02
     -1.932  0.0000E+00  0.1000E+02
     -1.806  0.0000E+00  0.1000E+02
     -1.680  0.0000E+00  0.1000E+02
     -1.554  0.0000E+00  0.1000E+02
     -1.428  0.0000E+00  0.1000E+02
     -1.302  0.0000E+00  0.1000E+02
     -1.176  0.0000E+00  0.1000E+02
     -1.050  0.0000E+00  0.1000E+02
     -0.924  0.0000E+00  0.1000E+02
     -0.798  0.0000E+00  0.1000E+02
     -0.672  0.0000E+00  0.1000E+02
     -0.546  0.0000E+00  0.1000E+02
     -0.420  0.0000E+00  0.1000E+02
     -0.293  0.0000E+00  0.1000E+02
     -0.167  0.0000E+00  0.1000E+02
     -0.041  0.0000E+00  0.1000E+02
      0.085  0.0000E+00  0.1000E+02
      0.211  0.0000E+00  0.1000E+02
      0.337  0.0000E+00  0.1000E+02
      0.463  0.0000E+00  0.1000E+02
      0.589  0.0000E+00  0.1000E+02
      0.715  0.4403E-15  0.1000E+02
      0.841  0.2226E-09  0.1000E+02
      0.967  0.7274E-05  0.1000E+02
      1.093  0.1113E-01  0.1000E+02
      1.219  0.8936E+00  0.1011E+02
      1.345  0.4793E+01  0.1072E+02
      1.471  0.2163E+01  0.1099E+02
      1.598  0.7227E-01  0.1100E+02
      1.724  0.1358E-03  0.1100E+02
      1.850  0.1232E-07  0.1100E+02
      1.976  0.5643E-06  0.1100E+02
      2.102  0.1992E-02  0.1100E+02
      2.228  0.3540E+00  0.1104E+02
      2.354  0.3882E+01  0.1153E+02
      2.480  0.3450E+01  0.1197E+02
      2.606  0.2439E+00  0.1200E+02
      2.732  0.1619E+00  0.1202E+02
      2.858  0.2980E+01  0.1240E+02
      2.984  0.4281E+01  0.1294E+02
      3.110  0.5474E+00  0.1300E+02
      3.236  0.1679E+01  0.1322E+02
      3.362  0.4954E+01  0.1384E+02
      3.489  0.1241E+01  0.1400E+02
      3.615  0.2148E-01  0.1400E+02
      3.741  0.1992E-04  0.1400E+02
      3.867  0.8730E-09  0.1400E+02
      3.993  0.1761E-14  0.1400E+02
      4.119  0.0000E+00  0.1400E+02
      4.245  0.0000E+00  0.1400E+02
      4.371  0.0000E+00  0.1400E+02
      4.497  0.0000E+00  0.1400E+02
      4.623  0.0000E+00  0.1400E+02
      4.749  0.0000E+00  0.1400E+02
      4.875  0.0000E+00  0.1400E+02
      5.001  0.0000E+00  0.1400E+02
      5.127  0.0000E+00  0.1400E+02
      5.253  0.0000E+00  0.1400E+02
      5.379  0.0000E+00  0.1400E+02
      5.506  0.0000E+00  0.1400E+02
      5.632  0.0000E+00  0.1400E+02
      5.758  0.0000E+00  0.1400E+02
      5.884  0.0000E+00  0.1400E+02
      6.010  0.0000E+00  0.1400E+02
      6.136  0.0000E+00  0.1400E+02
      6.262  0.0000E+00  0.1400E+02
      6.388  0.0000E+00  0.1400E+02
      6.514  0.0000E+00  0.1400E+02
      6.640  0.0000E+00  0.1400E+02
      6.766  0.0000E+00  0.1400E+02
      6.892  0.0000E+00  0.1400E+02
      7.018  0.0000E+00  0.1400E+02
      7.144  0.0000E+00  0.1400E+02
      7.270  0.0000E+00  0.1400E+02
      7.397  0.0000E+00  0.1400E+02
      7.523  0.0000E+00  0.1400E+02
      7.649  0.0000E+00  0.1400E+02
      7.775  0.0000E+00  0.1400E+02
      7.901  0.0000E+00  0.1400E+02
      8.027  0.0000E+00  0.1400E+02
      8.153  0.0000E+00  0.1400E+02
      8.279  0.0000E+00  0.1400E+02
      8.405  0.0000E+00  0.1400E+02
      8.531  0.0000E+00  0.1400E+02
      8.657  0.0000E+00  0.1400E+02
      8.783  0.0000E+00  0.1400E+02
      8.909  0.0000E+00  0.1400E+02
      9.035  0.0000E+00  0.1400E+02
      9.161  0.0000E+00  0.1400E+02
      9.287  0.0000E+00  0.1400E+02
      9.414  0.0000E+00  0.1400E+02
      9.540  0.0000E+00  0.1400E+02
      9.666  0.0000E+00  0.1400E+02
      9.792  0.0000E+00  0.1400E+02
      9.918  0.0000E+00  0.1400E+02
     10.044  0.0000E+00  0.1400E+02
     10.170  0.0000E+00  0.1400E+02
     10.296  0.3547E-12  0.1400E+02
     10.422  0.5571E-07  0.1400E+02
     10.548  0.3976E-03  0.1400E+02
     10.674  0.1388E+00  0.1402E+02
     10.800  0.2818E+01  0.1437E+02
     10.926  0.4401E+01  0.1493E+02
     11.052  0.5694E+00  0.1500E+02
     11.178  0.7693E-01  0.1501E+02
     11.305  0.2162E+01  0.1528E+02
     11.431  0.4793E+01  0.1589E+02
     11.557  0.8940E+00  0.1600E+02
     11.683  0.1114E-01  0.1600E+02
     11.809  0.7285E-05  0.1600E+02
     11.935  0.2230E-09  0.1600E+02
     12.061  0.0000E+00  0.1600E+02
     12.187  0.0000E+00  0.1600E+02
     12.313  0.0000E+00  0.1600E+02
     12.439  0.0000E+00  0.1600E+02
     12.565  0.0000E+00  0.1600E+02
     12.691  0.0000E+00  0.1600E+02
     12.817  0.0000E+00  0.1600E+02
     12.943  0.0000E+00  0.1600E+02
     13.069  0.0000E+00  0.1600E+02
     13.195  0.0000E+00  0.1600E+02
     13.322  0.0000E+00  0.1600E+02
     13.448  0.0000E+00  0.1600E+02
     13.574  0.0000E+00  0.1600E+02
     13.700  0.5152E-10  0.1600E+02
     13.826  0.2440E-05  0.1600E+02
     13.952  0.5372E-02  0.1600E+02
     14.078  0.6098E+00  0.1608E+02
     14.204  0.4468E+01  0.1664E+02
     14.330  0.2730E+01  0.1698E+02
     14.456  0.8657E+00  0.1709E+02
     14.582  0.4644E+01  0.1768E+02
     14.708  0.2445E+01  0.1799E+02
     14.834  0.9706E-01  0.1800E+02
     14.960  0.2202E-03  0.1800E+02
     15.086  0.2427E-07  0.1800E+02
     15.213  0.1211E-12  0.1800E+02
     15.339  0.7706E-15  0.1800E+02
     15.465  0.4980E-09  0.1800E+02
     15.591  0.1315E-04  0.1800E+02
     15.717  0.1637E-01  0.1800E+02
     15.843  0.1085E+01  0.1814E+02
     15.969  0.4903E+01  0.1876E+02
     16.095  0.1876E+01  0.1899E+02
     16.221  0.1539E+00  0.1901E+02
     16.347  0.2491E+01  0.1933E+02
     16.473  0.4616E+01  0.1991E+02
     16.599  0.7157E+00  0.2000E+02
     16.725  0.7266E-02  0.2000E+02
     16.851  0.3834E-05  0.2000E+02
     16.977  0.9439E-10  0.2000E+02
     17.104  0.0000E+00  0.2000E+02
     17.230  0.0000E+00  0.2000E+02
     17.356  0.0000E+00  0.2000E+02
     17.482  0.0000E+00  0.2000E+02
     17.608  0.0000E+00  0.2000E+02
     17.734  0.0000E+00  0.2000E+02
     17.860  0.0000E+00  0.2000E+02
     17.986  0.0000E+00  0.2000E+02
     18.112  0.0000E+00  0.2000E+02
     18.238  0.0000E+00  0.2000E+02
     18.364  0.0000E+00  0.2000E+02
     18.490  0.4403E-15  0.2000E+02
     18.616  0.2693E-09  0.2000E+02
     18.742  0.8371E-05  0.2000E+02
     18.868  0.1220E-01  0.2000E+02
     18.994  0.9364E+00  0.2012E+02
     19.121  0.4828E+01  0.2073E+02
     19.247  0.2674E+01  0.2107E+02
     19.373  0.4488E+01  0.2163E+02
     19.499  0.2790E+01  0.2198E+02
     19.625  0.1465E+00  0.2200E+02
     19.751  0.9011E+00  0.2211E+02
     19.877  0.4798E+01  0.2272E+02
     20.003  0.2151E+01  0.2299E+02
     20.129  0.7137E-01  0.2300E+02
     20.255  0.1345E-03  0.2300E+02
     20.381  0.3617E-02  0.2300E+02
     20.507  0.4928E+00  0.2306E+02
     20.633  0.4251E+01  0.2360E+02
     20.759  0.3018E+01  0.2398E+02
     20.885  0.1666E+00  0.2400E+02
     21.012  0.5402E-03  0.2400E+02
     21.138  0.8613E-07  0.2400E+02
     21.264  0.6255E-12  0.2400E+02
     21.390  0.0000E+00  0.2400E+02
     21.516  0.0000E+00  0.2400E+02
     21.642  0.0000E+00  0.2400E+02
     21.768  0.0000E+00  0.2400E+02
     21.894  0.0000E+00  0.2400E+02
     22.020  0.0000E+00  0.2400E+02
     22.146  0.0000E+00  0.2400E+02
     22.272  0.0000E+00  0.2400E+02
     22.398  0.0000E+00  0.2400E+02
     22.524  0.0000E+00  0.2400E+02
     22.650  0.0000E+00  0.2400E+02
     22.776  0.0000E+00  0.2400E+02
     22.902  0.0000E+00  0.2400E+02
     22.90248420    -27.39737446  400      1.85360068      1.00000000
    -27.397  0.0000E+00  0.0000E+00  0.0000E+00  0.0000E+00  0.0000E+00  0.0000E+00  0.0000E+00  0.0000E+00  0.0000E+00  0.0000E+00  0.0000E+00  0.0000E+00
    -27.271  0.0000E+00  0.0000E+00  0.0000E+00  0.0000E+00  0.0000E+00  0.0000E+00  0.0000E+00  0.0000E+00  0.0000E+00  0.0000E+00  0.0000E+00  0.0000E+00
    -27.145  0.0000E+00  0.0000E+00  0.0000E+00  0.0000E+00  0.0000E+00  0.0000E+00  0.0000E+00  0.0000E+00  0.0000E+00  0.0000E+00  0.0000E+00  0.0000E+00
    -27.019  0.0000E+00  0.0000E+00  0.0000E+00  0.0000E+00  0.0000E+00  0.0000E+00  0.0000E+00  0.0000E+00  0.0000E+00  0.0000E+00  0.0000E+00  0.0000E+00
    -26.893  0.0000E+00  0.0000E+00  0.0000E+00  0.0000E+00  0.0000E+00  0.0000E+00  0.0000E+00  0.0000E+00  0.0000E+00  0.0000E+00  0.0000E+00  0.0000E+00
    -26.767  0.0000E+00  0.0000E+00  0.0000E+00  0.0000E+00  0.0000E+00  0.0000E+00  0.0000E+00  0.0000E+00  0.0000E+00  0.0000E+00  0.0000E+00  0.0000E+00
    -26.641  0.0000E+00  0.0000E+00  0.0000E+00  0.0000E+00  0.0000E+00  0.0000E+00  0.0000E+00  0.0000E+00  0.0000E+00  0.0000E+00  0.0000E+00  0.0000E+00
    -26.515  0.0000E+00  0.0000E+00  0.0000E+00  0.0000E+00  0.0000E+00  0.0000E+00  0.0000E+00  0.0000E+00  0.0000E+00  0.0000E+00  0.0000E+00  0.0000E+00
    -26.389  0.0000E+00  0.0000E+00  0.0000E+00  0.0000E+00  0.0000E+00  0.0000E+00  0.0000E+00  0.0000E+00  0.0000E+00  0.0000E+00  0.0000E+00  0.0000E+00
    -26.263  0.0000E+00  0.0000E+00  0.0000E+00  0.0000E+00  0.0000E+00  0.0000E+00  0.0000E+00  0.0000E+00  0.0000E+00  0.0000E+00  0.0000E+00  0.0000E+00
    -26.137  0.0000E+00  0.0000E+00  0.0000E+00  0.0000E+00  0.0000E+00  0.0000E+00  0.0000E+00  0.0000E+00  0.0000E+00  0.0000E+00  0.0000E+00  0.0000E+00
    -26.011  0.0000E+00  0.0000E+00  0.0000E+00  0.0000E+00  0.0000E+00  0.0000E+00  0.0000E+00  0.0000E+00  0.0000E+00  0.0000E+00  0.0000E+00  0.0000E+00
    -25.885  0.0000E+00  0.0000E+00  0.0000E+00  0.0000E+00  0.0000E+00  0.0000E+00  0.0000E+00  0.0000E+00  0.0000E+00  0.0000E+00  0.0000E+00  0.0000E+00
    -25.759  0.0000E+00  0.0000E+00  0.0000E+00  0.0000E+00  0.0000E+00  0.0000E+00  0.0000E+00  0.0000E+00  0.0000E+00  0.0000E+00  0.0000E+00  0.0000E+00
    -25.632  0.1613E-12  0.9319E-13  0.9310E-13  0.9302E-13  0.7680E-13  0.4439E-13  0.4433E-13  0.4430E-13  0.0000E+00  0.0000E+00  0.0000E+00  0.0000E+00
    -25.506  0.2204E-07  0.1274E-07  0.1273E-07  0.1271E-07  0.1050E-07  0.6067E-08  0.6059E-08  0.6055E-08  0.0000E+00  0.0000E+00  0.0000E+00  0.0000E+00
    -25.380  0.1372E-03  0.7926E-04  0.7919E-04  0.7912E-04  0.6532E-04  0.3775E-04  0.3771E-04  0.3768E-04  0.0000E+00  0.0000E+00  0.0000E+00  0.0000E+00
    -25.254  0.4198E-01  0.2426E-01  0.2424E-01  0.2422E-01  0.1999E-01  0.1156E-01  0.1154E-01  0.1153E-01  0.0000E+00  0.0000E+00  0.0000E+00  0.0000E+00
    -25.128  0.7553E+00  0.4365E+00  0.4360E+00  0.4357E+00  0.3597E+00  0.2079E+00  0.2076E+00  0.2075E+00  0.0000E+00  0.0000E+00  0.0000E+00  0.0000E+00
    -25.002  0.1057E+01  0.6108E+00  0.6102E+00  0.6097E+00  0.5034E+00  0.2909E+00  0.2906E+00  0.2904E+00  0.0000E+00  0.0000E+00  0.0000E+00  0.0000E+00
    -24.876  0.1219E+00  0.7021E-01  0.7014E-01  0.7008E-01  0.5806E-01  0.3343E-01  0.3339E-01  0.3337E-01  0.0000E+00  0.0000E+00  0.0000E+00  0.0000E+00
    -24.750  0.5409E-01 -0.3024E-01 -0.3020E-01 -0.3018E-01  0.2752E-01 -0.1542E-01 -0.1540E-01 -0.1539E-01  0.0000E+00  0.0000E+00  0.0000E+00  0.0000E+00
    -24.624  0.8054E+00 -0.4655E+00 -0.4649E+00 -0.4646E+00  0.4102E+00 -0.2370E+00 -0.2368E+00 -0.2366E+00  0.0000E+00  0.0000E+00  0.0000E+00  0.0000E+00
    -24.498  0.9628E+00 -0.5565E+00 -0.5558E+00 -0.5554E+00  0.4904E+00 -0.2834E+00 -0.2831E+00 -0.2829E+00  0.0000E+00  0.0000E+00  0.0000E+00  0.0000E+00
    -24.372  0.9368E-01 -0.5414E-01 -0.5407E-01 -0.5404E-01  0.4771E-01 -0.2757E-01 -0.2754E-01 -0.2752E-01  0.0000E+00  0.0000E+00  0.0000E+00  0.0000E+00
    -24.246  0.5662E-03 -0.3273E-03 -0.3268E-03 -0.3266E-03  0.2884E-03 -0.1666E-03 -0.1665E-03 -0.1663E-03  0.0000E+00  0.0000E+00  0.0000E+00  0.0000E+00
    -24.120  0.1729E-06 -0.9991E-07 -0.9979E-07 -0.9973E-07  0.8804E-07 -0.5088E-07 -0.5083E-07 -0.5079E-07  0.0000E+00  0.0000E+00  0.0000E+00  0.0000E+00
    -23.994  0.2430E-11 -0.1405E-11 -0.1403E-11 -0.1402E-11  0.1238E-11 -0.7153E-12 -0.7146E-12 -0.7140E-12  0.0000E+00  0.0000E+00  0.0000E+00  0.0000E+00
    -23.868  0.0000E+00  0.0000E+00  0.0000E+00  0.0000E+00  0.0000E+00  0.0000E+00  0.0000E+00  0.0000E+00  0.0000E+00  0.0000E+00  0.0000E+00  0.0000E+00
    -23.741  0.0000E+00  0.0000E+00  0.0000E+00  0.0000E+00  0.0000E+00  0.0000E+00  0.0000E+00  0.0000E+00  0.0000E+00  0.0000E+00  0.0000E+00  0.0000E+00
    -23.615  0.0000E+00  0.0000E+00  0.0000E+00  0.0000E+00  0.0000E+00  0.0000E+00  0.0000E+00  0.0000E+00  0.0000E+00  0.0000E+00  0.0000E+00  0.0000E+00
    -23.489  0.0000E+00  0.0000E+00  0.0000E+00  0.0000E+00  0.0000E+00  0.0000E+00  0.0000E+00  0.0000E+00  0.0000E+00  0.0000E+00  0.0000E+00  0.0000E+00
    -23.363  0.0000E+00  0.0000E+00  0.0000E+00  0.0000E+00  0.0000E+00  0.0000E+00  0.0000E+00  0.0000E+00  0.0000E+00  0.0000E+00  0.0000E+00  0.0000E+00
    -23.237  0.0000E+00  0.0000E+00  0.0000E+00  0.0000E+00  0.0000E+00  0.0000E+00  0.0000E+00  0.0000E+00  0.0000E+00  0.0000E+00  0.0000E+00  0.0000E+00
    -23.111  0.0000E+00  0.0000E+00  0.0000E+00  0.0000E+00  0.0000E+00  0.0000E+00  0.0000E+00  0.0000E+00  0.0000E+00  0.0000E+00  0.0000E+00  0.0000E+00
    -22.985  0.0000E+00  0.0000E+00  0.0000E+00  0.0000E+00  0.0000E+00  0.0000E+00  0.0000E+00  0.0000E+00  0.0000E+00  0.0000E+00  0.0000E+00  0.0000E+00
    -22.859  0.0000E+00  0.0000E+00  0.0000E+00  0.0000E+00  0.0000E+00  0.0000E+00  0.0000E+00  0.0000E+00  0.0000E+00  0.0000E+00  0.0000E+00  0.0000E+00
    -22.733  0.0000E+00  0.0000E+00  0.0000E+00  0.0000E+00  0.0000E+00  0.0000E+00  0.0000E+00  0.0000E+00  0.0000E+00  0.0000E+00  0.0000E+00  0.0000E+00
    -22.607  0.0000E+00  0.0000E+00  0.0000E+00  0.0000E+00  0.0000E+00  0.0000E+00  0.0000E+00  0.0000E+00  0.0000E+00  0.0000E+00  0.0000E+00  0.0000E+00
    -22.481  0.0000E+00  0.0000E+00  0.0000E+00  0.0000E+00  0.0000E+00  0.0000E+00  0.0000E+00  0.0000E+00  0.0000E+00  0.0000E+00  0.0000E+00  0.0000E+00
    -22.355  0.0000E+00  0.0000E+00  0.0000E+00  0.0000E+00  0.0000E+00  0.0000E+00  0.0000E+00  0.0000E+00  0.0000E+00  0.0000E+00  0.0000E+00  0.0000E+00
    -22.229  0.0000E+00  0.0000E+00  0.0000E+00  0.0000E+00  0.0000E+00  0.0000E+00  0.0000E+00  0.0000E+00  0.0000E+00  0.0000E+00  0.0000E+00  0.0000E+00
    -22.103  0.0000E+00  0.0000E+00  0.0000E+00  0.0000E+00  0.0000E+00  0.0000E+00  0.0000E+00  0.0000E+00  0.0000E+00  0.0000E+00  0.0000E+00  0.0000E+00
    -21.977  0.0000E+00  0.0000E+00  0.0000E+00  0.0000E+00  0.0000E+00  0.0000E+00  0.0000E+00  0.0000E+00  0.0000E+00  0.0000E+00  0.0000E+00  0.0000E+00
    -21.851  0.0000E+00  0.0000E+00  0.0000E+00  0.0000E+00  0.0000E+00  0.0000E+00  0.0000E+00  0.0000E+00  0.0000E+00  0.0000E+00  0.0000E+00  0.0000E+00
    -21.724  0.0000E+00  0.0000E+00  0.0000E+00  0.0000E+00  0.0000E+00  0.0000E+00  0.0000E+00  0.0000E+00  0.0000E+00  0.0000E+00  0.0000E+00  0.0000E+00
    -21.598  0.0000E+00  0.0000E+00  0.0000E+00  0.0000E+00  0.0000E+00  0.0000E+00  0.0000E+00  0.0000E+00  0.0000E+00  0.0000E+00  0.0000E+00  0.0000E+00
    -21.472  0.0000E+00  0.0000E+00  0.0000E+00  0.0000E+00  0.0000E+00  0.0000E+00  0.0000E+00  0.0000E+00  0.0000E+00  0.0000E+00  0.0000E+00  0.0000E+00
    -21.346  0.0000E+00  0.0000E+00  0.0000E+00  0.0000E+00  0.0000E+00  0.0000E+00  0.0000E+00  0.0000E+00  0.0000E+00  0.0000E+00  0.0000E+00  0.0000E+00
    -21.220  0.0000E+00  0.0000E+00  0.0000E+00  0.0000E+00  0.0000E+00  0.0000E+00  0.0000E+00  0.0000E+00  0.0000E+00  0.0000E+00  0.0000E+00  0.0000E+00
    -21.094  0.0000E+00  0.0000E+00  0.0000E+00  0.0000E+00  0.0000E+00  0.0000E+00  0.0000E+00  0.0000E+00  0.0000E+00  0.0000E+00  0.0000E+00  0.0000E+00
    -20.968  0.0000E+00  0.0000E+00  0.0000E+00  0.0000E+00  0.0000E+00  0.0000E+00  0.0000E+00  0.0000E+00  0.0000E+00  0.0000E+00  0.0000E+00  0.0000E+00
    -20.842  0.0000E+00  0.0000E+00  0.0000E+00  0.0000E+00  0.0000E+00  0.0000E+00  0.0000E+00  0.0000E+00  0.0000E+00  0.0000E+00  0.0000E+00  0.0000E+00
    -20.716  0.0000E+00  0.0000E+00  0.0000E+00  0.0000E+00  0.0000E+00  0.0000E+00  0.0000E+00  0.0000E+00  0.0000E+00  0.0000E+00  0.0000E+00  0.0000E+00
    -20.590  0.0000E+00  0.0000E+00  0.0000E+00  0.0000E+00  0.0000E+00  0.0000E+00  0.0000E+00  0.0000E+00  0.0000E+00  0.0000E+00  0.0000E+00  0.0000E+00
    -20.464  0.0000E+00  0.0000E+00  0.0000E+00  0.0000E+00  0.0000E+00  0.0000E+00  0.0000E+00  0.0000E+00  0.0000E+00  0.0000E+00  0.0000E+00  0.0000E+00
    -20.338  0.0000E+00  0.0000E+00  0.0000E+00  0.0000E+00  0.0000E+00  0.0000E+00  0.0000E+00  0.0000E+00  0.0000E+00  0.0000E+00  0.0000E+00  0.0000E+00
    -20.212  0.0000E+00  0.0000E+00  0.0000E+00  0.0000E+00  0.0000E+00  0.0000E+00  0.0000E+00  0.0000E+00  0.0000E+00  0.0000E+00  0.0000E+00  0.0000E+00
    -20.086  0.0000E+00  0.0000E+00  0.0000E+00  0.0000E+00  0.0000E+00  0.0000E+00  0.0000E+00  0.0000E+00  0.0000E+00  0.0000E+00  0.0000E+00  0.0000E+00
    -19.960  0.0000E+00  0.0000E+00  0.0000E+00  0.0000E+00  0.0000E+00  0.0000E+00  0.0000E+00  0.0000E+00  0.0000E+00  0.0000E+00  0.0000E+00  0.0000E+00
    -19.833  0.0000E+00  0.0000E+00  0.0000E+00  0.0000E+00  0.0000E+00  0.0000E+00  0.0000E+00  0.0000E+00  0.0000E+00  0.0000E+00  0.0000E+00  0.0000E+00
    -19.707  0.0000E+00  0.0000E+00  0.0000E+00  0.0000E+00  0.0000E+00  0.0000E+00  0.0000E+00  0.0000E+00  0.0000E+00  0.0000E+00  0.0000E+00  0.0000E+00
    -19.581  0.0000E+00  0.0000E+00  0.0000E+00  0.0000E+00  0.0000E+00  0.0000E+00  0.0000E+00  0.0000E+00  0.0000E+00  0.0000E+00  0.0000E+00  0.0000E+00
    -19.455  0.0000E+00  0.0000E+00  0.0000E+00  0.0000E+00  0.0000E+00  0.0000E+00  0.0000E+00  0.0000E+00  0.0000E+00  0.0000E+00  0.0000E+00  0.0000E+00
    -19.329  0.0000E+00  0.0000E+00  0.0000E+00  0.0000E+00  0.0000E+00  0.0000E+00  0.0000E+00  0.0000E+00  0.0000E+00  0.0000E+00  0.0000E+00  0.0000E+00
    -19.203  0.0000E+00  0.0000E+00  0.0000E+00  0.0000E+00  0.0000E+00  0.0000E+00  0.0000E+00  0.0000E+00  0.0000E+00  0.0000E+00  0.0000E+00  0.0000E+00
    -19.077  0.0000E+00  0.0000E+00  0.0000E+00  0.0000E+00  0.0000E+00  0.0000E+00  0.0000E+00  0.0000E+00  0.0000E+00  0.0000E+00  0.0000E+00  0.0000E+00
    -18.951  0.0000E+00  0.0000E+00  0.0000E+00  0.0000E+00  0.0000E+00  0.0000E+00  0.0000E+00  0.0000E+00  0.0000E+00  0.0000E+00  0.0000E+00  0.0000E+00
    -18.825  0.0000E+00  0.0000E+00  0.0000E+00  0.0000E+00  0.0000E+00  0.0000E+00  0.0000E+00  0.0000E+00  0.0000E+00  0.0000E+00  0.0000E+00  0.0000E+00
    -18.699  0.0000E+00  0.0000E+00  0.0000E+00  0.0000E+00  0.0000E+00  0.0000E+00  0.0000E+00  0.0000E+00  0.0000E+00  0.0000E+00  0.0000E+00  0.0000E+00
    -18.573  0.0000E+00  0.0000E+00  0.0000E+00  0.0000E+00  0.0000E+00  0.0000E+00  0.0000E+00  0.0000E+00  0.0000E+00  0.0000E+00  0.0000E+00  0.0000E+00
    -18.447  0.0000E+00  0.0000E+00  0.0000E+00  0.0000E+00  0.0000E+00  0.0000E+00  0.0000E+00  0.0000E+00  0.0000E+00  0.0000E+00  0.0000E+00  0.0000E+00
    -18.321  0.0000E+00  0.0000E+00  0.0000E+00  0.0000E+00  0.0000E+00  0.0000E+00  0.0000E+00  0.0000E+00  0.0000E+00  0.0000E+00  0.0000E+00  0.0000E+00
    -18.195  0.0000E+00  0.0000E+00  0.0000E+00  0.0000E+00  0.0000E+00  0.0000E+00  0.0000E+00  0.0000E+00  0.0000E+00  0.0000E+00  0.0000E+00  0.0000E+00
    -18.069  0.0000E+00  0.0000E+00  0.0000E+00  0.0000E+00  0.0000E+00  0.0000E+00  0.0000E+00  0.0000E+00  0.0000E+00  0.0000E+00  0.0000E+00  0.0000E+00
    -17.943  0.0000E+00  0.0000E+00  0.0000E+00  0.0000E+00  0.0000E+00  0.0000E+00  0.0000E+00  0.0000E+00  0.0000E+00  0.0000E+00  0.0000E+00  0.0000E+00
    -17.816  0.0000E+00  0.0000E+00  0.0000E+00  0.0000E+00  0.0000E+00  0.0000E+00  0.0000E+00  0.0000E+00  0.0000E+00  0.0000E+00  0.0000E+00  0.0000E+00
    -17.690  0.0000E+00  0.0000E+00  0.0000E+00  0.0000E+00  0.0000E+00  0.0000E+00  0.0000E+00  0.0000E+00  0.0000E+00  0.0000E+00  0.0000E+00  0.0000E+00
    -17.564  0.0000E+00  0.0000E+00  0.0000E+00  0.0000E+00  0.0000E+00  0.0000E+00  0.0000E+00  0.0000E+00  0.0000E+00  0.0000E+00  0.0000E+00  0.0000E+00
    -17.438  0.0000E+00  0.0000E+00  0.0000E+00  0.0000E+00  0.0000E+00  0.0000E+00  0.0000E+00  0.0000E+00  0.0000E+00  0.0000E+00  0.0000E+00  0.0000E+00
    -17.312  0.0000E+00  0.0000E+00  0.0000E+00  0.0000E+00  0.0000E+00  0.0000E+00  0.0000E+00  0.0000E+00  0.0000E+00  0.0000E+00  0.0000E+00  0.0000E+00
    -17.186  0.0000E+00  0.0000E+00  0.0000E+00  0.0000E+00  0.0000E+00  0.0000E+00  0.0000E+00  0.0000E+00  0.0000E+00  0.0000E+00  0.0000E+00  0.0000E+00
    -17.060  0.0000E+00  0.0000E+00  0.0000E+00  0.0000E+00  0.0000E+00  0.0000E+00  0.0000E+00  0.0000E+00  0.0000E+00  0.0000E+00  0.0000E+00  0.0000E+00
    -16.934  0.0000E+00  0.0000E+00  0.0000E+00  0.0000E+00  0.0000E+00  0.0000E+00  0.0000E+00  0.0000E+00  0.0000E+00  0.0000E+00  0.0000E+00  0.0000E+00
    -16.808  0.0000E+00  0.0000E+00  0.0000E+00  0.0000E+00  0.0000E+00  0.0000E+00  0.0000E+00  0.0000E+00  0.0000E+00  0.0000E+00  0.0000E+00  0.0000E+00
    -16.682  0.0000E+00  0.0000E+00  0.0000E+00  0.0000E+00  0.0000E+00  0.0000E+00  0.0000E+00  0.0000E+00  0.0000E+00  0.0000E+00  0.0000E+00  0.0000E+00
    -16.556  0.0000E+00  0.0000E+00  0.0000E+00  0.0000E+00  0.0000E+00  0.0000E+00  0.0000E+00  0.0000E+00  0.0000E+00  0.0000E+00  0.0000E+00  0.0000E+00
    -16.430  0.0000E+00  0.0000E+00  0.0000E+00  0.0000E+00  0.0000E+00  0.0000E+00  0.0000E+00  0.0000E+00  0.0000E+00  0.0000E+00  0.0000E+00  0.0000E+00
    -16.304  0.0000E+00  0.0000E+00  0.0000E+00  0.0000E+00  0.0000E+00  0.0000E+00  0.0000E+00  0.0000E+00  0.0000E+00  0.0000E+00  0.0000E+00  0.0000E+00
    -16.178  0.0000E+00  0.0000E+00  0.0000E+00  0.0000E+00  0.0000E+00  0.0000E+00  0.0000E+00  0.0000E+00  0.0000E+00  0.0000E+00  0.0000E+00  0.0000E+00
    -16.052  0.0000E+00  0.0000E+00  0.0000E+00  0.0000E+00  0.0000E+00  0.0000E+00  0.0000E+00  0.0000E+00  0.0000E+00  0.0000E+00  0.0000E+00  0.0000E+00
    -15.925  0.0000E+00  0.0000E+00  0.0000E+00  0.0000E+00  0.0000E+00  0.0000E+00  0.0000E+00  0.0000E+00  0.0000E+00  0.0000E+00  0.0000E+00  0.0000E+00
    -15.799  0.0000E+00  0.0000E+00  0.0000E+00  0.0000E+00  0.0000E+00  0.0000E+00  0.0000E+00  0.0000E+00  0.0000E+00  0.0000E+00  0.0000E+00  0.0000E+00
    -15.673  0.0000E+00  0.0000E+00  0.0000E+00  0.0000E+00  0.0000E+00  0.0000E+00  0.0000E+00  0.0000E+00  0.0000E+00  0.0000E+00  0.0000E+00  0.0000E+00
    -15.547  0.0000E+00  0.0000E+00  0.0000E+00  0.0000E+00  0.0000E+00  0.0000E+00  0.0000E+00  0.0000E+00  0.0000E+00  0.0000E+00  0.0000E+00  0.0000E+00
    -15.421  0.0000E+00  0.0000E+00  0.0000E+00  0.0000E+00  0.0000E+00  0.0000E+00  0.0000E+00  0.0000E+00  0.0000E+00  0.0000E+00  0.0000E+00  0.0000E+00
    -15.295  0.0000E+00  0.0000E+00  0.0000E+00  0.0000E+00  0.0000E+00  0.0000E+00  0.0000E+00  0.0000E+00  0.0000E+00  0.0000E+00  0.0000E+00  0.0000E+00
    -15.169  0.0000E+00  0.0000E+00  0.0000E+00  0.0000E+00  0.0000E+00  0.0000E+00  0.0000E+00  0.0000E+00  0.0000E+00  0.0000E+00  0.0000E+00  0.0000E+00