    2    2    1    1
  0.1200000E+02  0.2000000E-09  0.3000000E-09  0.4000000E-09  0.5000000E-15
  1.000000000000000E-004
  CAR 
 unknown system                          
     11      4     24
 
  0.2500000E+00  0.2500000E+00  0.0000000E+00  0.2500000E+00
    1      -25.110806   1.000000
    2      -24.614862   1.000000
    3      -11.114166   1.000000
    4      -10.290442   1.000000
    5       -7.665049   1.000000
    6       -7.297651   1.000000
    7       -6.634965   1.000000
    8       -5.300602   1.000000
    9       -4.728755   1.000000
   10       -4.254821   1.000000
   11        1.304742   1.000000
   12        2.347543   0.000000
   13        2.877151   0.000000
   14        3.291683   0.000000
   15       10.823084   0.000000
   16       11.345507   0.000000
   17       14.177527   0.000000
   18       14.550179   0.000000
   19       15.921414   0.000000
   20       16.377092   0.000000
   21       19.077939   0.000000
   22       19.348839   0.000000
   23       19.835471   0.000000
   24       20.615872   0.000000
 
 -0.2500000E+00  0.2500000E+00  0.0000000E+00  0.2500000E+00
    1      -25.111017   1.000000
    2      -24.614632   1.000000
    3      -11.113727   1.000000
    4      -10.291122   1.000000
    5       -7.661723   1.000000
    6       -7.300986   1.000000
    7       -6.634670   1.000000
    8       -5.300673   1.000000
    9       -4.733204   1.000000
   10       -4.250249   1.000000
   11        1.304731   1.000000
   12        2.348115   0.000000
   13        2.876484   0.000000
   14        3.291695   0.000000
   15       10.823270   0.000000
   16       11.345231   0.000000
   17       14.176395   0.000000
   18       14.551305   0.000000
   19       15.921597   0.000000
   20       16.377044   0.000000
   21       19.078782   0.000000
   22       19.348236   0.000000
   23       19.834963   0.000000
   24       20.616127   0.000000
 
  0.2500000E+00 -0.2500000E+00  0.0000000E+00  0.2500000E+00
    1      -25.110796   1.000000
    2      -24.614873   1.000000
    3      -11.114152   1.000000
    4      -10.290418   1.000000
    5       -7.666313   1.000000
    6       -7.297072   1.000000
    7       -6.633962   1.000000
    8       -5.300562   1.000000
    9       -4.728248   1.000000
   10       -4.255718   1.000000
   11        1.304393   1.000000
   12        2.347545   0.000000
   13        2.877178   0.000000
   14        3.292021   0.000000
   15       10.823120   0.000000
   16       11.345540   0.000000
   17       14.180623   0.000000
   18       14.547124   0.000000
   19       15.917723   0.000000
   20       16.380626   0.000000
   21       19.076655   0.000000
   22       19.349712   0.000000
   23       19.836548   0.000000
   24       20.615244   0.000000
 
 -0.2500000E+00 -0.2500000E+00  0.0000000E+00  0.2500000E+00
    1      -25.111007   1.000000
    2      -24.614643   1.000000
    3      -11.113714   1.000000
    4      -10.291098   1.000000
    5       -7.663019   1.000000
    6       -7.300369   1.000000
    7       -6.633664   1.000000
    8       -5.300648   1.000000
    9       -4.732714   1.000000
   10       -4.251122   1.000000
   11        1.304384   1.000000
   12        2.348113   0.000000
   13        2.876510   0.000000
   14        3.292034   0.000000
   15       10.823313   0.000000
   16       11.345253   0.000000
   17       14.179478   0.000000
   18       14.548268   0.000000
   19       15.917897   0.000000
   20       16.380588   0.000000
   21       19.077476   0.000000
   22       19.349115   0.000000
   23       19.836038   0.000000
   24       20.615506   0.000000
