 vasp.5.4.4.18Apr17-6-g9f103f2a35 (build Feb 29 2024 11:51:35) complex          
  
 executed on             LinuxIFC date 2024.03.26  14:27:42
 running on   12 total cores
 distrk:  each k-point on   12 cores,    1 groups
 distr:  one band on NCORES_PER_BAND=   1 cores,   12 groups


--------------------------------------------------------------------------------------------------------


 INCAR:
 POTCAR:   PAW_PBE N 08Apr2002                    
 POTCAR:   PAW_PBE O 08Apr2002                    

 ----------------------------------------------------------------------------- 
|                                                                             |
|           W    W    AA    RRRRR   N    N  II  N    N   GGGG   !!!           |
|           W    W   A  A   R    R  NN   N  II  NN   N  G    G  !!!           |
|           W    W  A    A  R    R  N N  N  II  N N  N  G       !!!           |
|           W WW W  AAAAAA  RRRRR   N  N N  II  N  N N  G  GGG   !            |
|           WW  WW  A    A  R   R   N   NN  II  N   NN  G    G                |
|           W    W  A    A  R    R  N    N  II  N    N   GGGG   !!!           |
|                                                                             |
|      For optimal performance we recommend to set                            |
|        NCORE= 4 - approx SQRT( number of cores)                             |
|      NCORE specifies how many cores store one orbital (NPAR=cpu/NCORE).     |
|      This setting can  greatly improve the performance of VASP for DFT.     |
|      The default,   NCORE=1            might be grossly inefficient         |
|      on modern multi-core architectures or massively parallel machines.     |
|      Do your own testing !!!!                                               |
|      Unfortunately you need to use the default for GW and RPA calculations. |
|      (for HF NCORE is supported but not extensively tested yet)             |
|                                                                             |
 ----------------------------------------------------------------------------- 

 POTCAR:   PAW_PBE N 08Apr2002                    
   VRHFIN =N: s2p3                                                              
   LEXCH  = PE                                                                  
   EATOM  =   264.5486 eV,   19.4438 Ry                                         
                                                                                
   TITEL  = PAW_PBE N 08Apr2002                                                 
   LULTRA =        F    use ultrasoft PP ?                                      
   IUNSCR =        0    unscreen: 0-lin 1-nonlin 2-no                           
   RPACOR =     .000    partial core radius                                     
   POMASS =   14.001; ZVAL   =    5.000    mass and valenz                      
   RCORE  =    1.500    outmost cutoff radius                                   
   RWIGS  =    1.400; RWIGS  =     .741    wigner-seitz radius (au A)           
   ENMAX  =  400.000; ENMIN  =  300.000 eV                                      
   ICORE  =        2    local potential                                         
   LCOR   =        T    correct aug charges                                     
   LPAW   =        T    paw PP                                                  
   EAUG   =  627.112                                                            
   DEXC   =     .000                                                            
   RMAX   =    2.247    core radius for proj-oper                               
   RAUG   =    1.300    factor for augmentation sphere                          
   RDEP   =    1.514    radius for radial grids                                 
   QCUT   =   -5.562; QGAM   =   11.124    optimization parameters              
                                                                                
   Description                                                                  
     l     E      TYP  RCUT    TYP  RCUT                                        
     0   .000     23  1.200                                                     
     0   .000     23  1.200                                                     
     1   .000     23  1.500                                                     
     1   .700     23  1.500                                                     
     2   .000      7  1.500                                                     
  local pseudopotential read in
  atomic valenz-charges read in
  non local Contribution for L=           0  read in
    real space projection operators read in
  non local Contribution for L=           0  read in
    real space projection operators read in
  non local Contribution for L=           1  read in
    real space projection operators read in
  non local Contribution for L=           1  read in
    real space projection operators read in
    PAW grid and wavefunctions read in
 
   number of l-projection  operators is LMAX  =           4
   number of lm-projection operators is LMMAX =           8
 
 POTCAR:   PAW_PBE O 08Apr2002                    
   VRHFIN =O: s2p4                                                              
   LEXCH  = PE                                                                  
   EATOM  =   432.3788 eV,   31.7789 Ry                                         
                                                                                
   TITEL  = PAW_PBE O 08Apr2002                                                 
   LULTRA =        F    use ultrasoft PP ?                                      
   IUNSCR =        0    unscreen: 0-lin 1-nonlin 2-no                           
   RPACOR =     .000    partial core radius                                     
   POMASS =   16.000; ZVAL   =    6.000    mass and valenz                      
   RCORE  =    1.520    outmost cutoff radius                                   
   RWIGS  =    1.550; RWIGS  =     .820    wigner-seitz radius (au A)           
   ENMAX  =  400.000; ENMIN  =  300.000 eV                                      
   ICORE  =        2    local potential                                         
   LCOR   =        T    correct aug charges                                     
   LPAW   =        T    paw PP                                                  
   EAUG   =  605.392                                                            
   DEXC   =     .000                                                            
   RMAX   =    2.264    core radius for proj-oper                               
   RAUG   =    1.300    factor for augmentation sphere                          
   RDEP   =    1.550    radius for radial grids                                 
   QCUT   =   -5.520; QGAM   =   11.041    optimization parameters              
                                                                                
   Description                                                                  
     l     E      TYP  RCUT    TYP  RCUT                                        
     0   .000     23  1.200                                                     
     0  -.700     23  1.200                                                     
     1   .000     23  1.520                                                     
     1   .600     23  1.520                                                     
     2   .000      7  1.500                                                     
  local pseudopotential read in
  atomic valenz-charges read in
  non local Contribution for L=           0  read in
    real space projection operators read in
  non local Contribution for L=           0  read in
    real space projection operators read in
  non local Contribution for L=           1  read in
    real space projection operators read in
  non local Contribution for L=           1  read in
    real space projection operators read in
    PAW grid and wavefunctions read in
 
   number of l-projection  operators is LMAX  =           4
   number of lm-projection operators is LMMAX =           8
 

 ----------------------------------------------------------------------------- 
|                                                                             |
|  ADVICE TO THIS USER RUNNING 'VASP/VAMP'   (HEAR YOUR MASTER'S VOICE ...):  |
|                                                                             |
|      You have a (more or less) 'small supercell' and for smaller cells      |
|      it is recommended  to use the reciprocal-space projection scheme!      |
|      The real space optimization is not  efficient for small cells and it   |
|      is also less accurate ...                                              |
|      Therefore set LREAL=.FALSE. in the  INCAR file                         |
|                                                                             |
 ----------------------------------------------------------------------------- 

 Optimization of the real space projectors (new method)

 maximal supplied QI-value         = 25.13
 optimisation between [QCUT,QGAM] = [ 12.32, 24.88] = [ 42.47,173.37] Ry 
 Optimized for a Real-space Cutoff    1.35 Angstroem

   l    n(q)    QCUT    max X(q) W(low)/X(q) W(high)/X(q)  e(spline) 
   0     10    12.315     4.511    0.23E-04    0.46E-05    0.84E-07
   0     10    12.315    37.799    0.59E-04    0.23E-05    0.59E-06
   1     10    12.315     2.478    0.27E-05    0.43E-06    0.89E-07
   1     10    12.315    13.693    0.13E-03    0.24E-03    0.75E-06
 Optimization of the real space projectors (new method)

 maximal supplied QI-value         = 24.76
 optimisation between [QCUT,QGAM] = [ 12.38, 25.00] = [ 42.90,175.06] Ry 
 Optimized for a Real-space Cutoff    1.16 Angstroem

   l    n(q)    QCUT    max X(q) W(low)/X(q) W(high)/X(q)  e(spline) 
   0      9    12.378     4.192    0.16E-04    0.96E-05    0.57E-07
   0      9    12.378     8.473    0.17E-03    0.81E-05    0.33E-06
   1      8    12.378     2.474    0.24E-04    0.82E-05    0.33E-07
   1      8    12.378     3.912    0.18E-03    0.14E-03    0.26E-06
 PAW_PBE N 08Apr2002                    :
 energy of atom  1       EATOM= -264.5486
 kinetic energy error for atom=    0.0103 (will be added to EATOM!!)
 PAW_PBE O 08Apr2002                    :
 energy of atom  2       EATOM= -432.3788
 kinetic energy error for atom=    0.0168 (will be added to EATOM!!)
 
 
 POSCAR: sisl output                             
  positions in direct lattice
  velocities in cartesian coordinates
 exchange correlation table for  LEXCH =        8
   RHO(1)=    0.500       N(1)  =     2000
   RHO(2)=  100.500       N(2)  =     4000
 


--------------------------------------------------------------------------------------------------------


 ion  position               nearest neighbor table
   1  0.500  0.500  0.560-   2 1.19
   2  0.500  0.500  0.263-   1 1.19
 
  LATTYP: Found a simple orthorhombic cell.
 ALAT       =     2.0000000000
 B/A-ratio  =     1.5000000000
 C/A-ratio  =     2.0000000000
  
  Lattice vectors:
  
 A1 = (   2.0000000000,   0.0000000000,   0.0000000000)
 A2 = (   0.0000000000,   3.0000000000,   0.0000000000)
 A3 = (   0.0000000000,   0.0000000000,   4.0000000000)


Analysis of symmetry for initial positions (statically):
=====================================================================
 Subroutine PRICEL returns:
 Original cell was already a primitive cell.
 

 Routine SETGRP: Setting up the symmetry group for a 
 simple orthorhombic supercell.


 Subroutine GETGRP returns: Found  4 space group operations
 (whereof  4 operations were pure point group operations)
 out of a pool of  8 trial point group operations.


The static configuration has the point symmetry C_2v.


Analysis of symmetry for dynamics (positions and initial velocities):
=====================================================================
 Subroutine PRICEL returns:
 Original cell was already a primitive cell.
 

 Routine SETGRP: Setting up the symmetry group for a 
 simple orthorhombic supercell.


 Subroutine GETGRP returns: Found  4 space group operations
 (whereof  4 operations were pure point group operations)
 out of a pool of  8 trial point group operations.


The dynamic configuration has the point symmetry C_2v.


Analysis of constrained symmetry for selective dynamics:
=====================================================================
 Subroutine PRICEL returns:
 Original cell was already a primitive cell.
 

 Routine SETGRP: Setting up the symmetry group for a 
 simple orthorhombic supercell.


 Subroutine GETGRP returns: Found  4 space group operations
 (whereof  4 operations were pure point group operations)
 out of a pool of  8 trial point group operations.


The constrained configuration has the point symmetry C_2v.


Analysis of structural, dynamic, and magnetic symmetry:
=====================================================================
 Subroutine PRICEL returns:
 Original cell was already a primitive cell.
 

 Routine SETGRP: Setting up the symmetry group for a 
 simple orthorhombic supercell.


 Subroutine GETGRP returns: Found  1 space group operations
 (whereof  1 operations were pure point group operations)
 out of a pool of  8 trial point group operations.


The (compounded) configuration has the point symmetry C_1 .


 Subroutine INISYM returns: Found  1 space group operations
 (whereof  1 operations are pure point group operations),
 and found     1 'primitive' translations

 
 
 KPOINTS: Automatic generation                    

Automatic generation of k-mesh.
Space group operators:
 irot       det(A)        alpha          n_x          n_y          n_z        tau_x        tau_y        tau_z
    1     1.000000     0.000000     1.000000     0.000000     0.000000     0.000000     0.000000     0.000000
 
 Subroutine IBZKPT returns following result:
 ===========================================
 
 Found      4 irreducible k-points:
 
 Following reciprocal coordinates:
            Coordinates               Weight
  0.250000  0.250000  0.000000      1.000000
 -0.250000  0.250000  0.000000      1.000000
  0.250000 -0.250000  0.000000      1.000000
 -0.250000 -0.250000  0.000000      1.000000
 
 Following cartesian coordinates:
            Coordinates               Weight
  0.125000  0.083333  0.000000      1.000000
 -0.125000  0.083333  0.000000      1.000000
  0.125000 -0.083333  0.000000      1.000000
 -0.125000 -0.083333  0.000000      1.000000
 


--------------------------------------------------------------------------------------------------------




 Dimension of arrays:
   k-points           NKPTS =      4   k-points in BZ     NKDIM =      4   number of bands    NBANDS=     24
   number of dos      NEDOS =    400   number of ions     NIONS =      2
   non local maximal  LDIM  =      4   non local SUM 2l+1 LMDIM =      8
   total plane-waves  NPLWV =  12288
   max r-space proj   IRMAX =   5279   max aug-charges    IRDMAX=   6841
   dimension x,y,z NGX =    16 NGY =   24 NGZ =   32
   dimension x,y,z NGXF=    32 NGYF=   48 NGZF=   64
   support grid    NGXF=    32 NGYF=   48 NGZF=   64
   ions per type =               1   1
   NGX,Y,Z   is equivalent  to a cutoff of  13.30, 13.30, 13.30 a.u.
   NGXF,Y,Z  is equivalent  to a cutoff of  26.60, 26.60, 26.60 a.u.

 SYSTEM =  unknown system                          
 POSCAR =  sisl output                             

 Startparameter for this run:
   NWRITE =      2    write-flag & timer
   PREC   = accura    normal or accurate (medium, high low for compatibility)
   ISTART =      0    job   : 0-new  1-cont  2-samecut
   ICHARG =      2    charge: 1-file 2-atom 10-const
   ISPIN  =      1    spin polarized calculation?
   LNONCOLLINEAR =      T non collinear calculations
   LSORBIT =      T    spin-orbit coupling
   INIWAV =      1    electr: 0-lowe 1-rand  2-diag
   LASPH  =      F    aspherical Exc in radial PAW
   METAGGA=      F    non-selfconsistent MetaGGA calc.

 Electronic Relaxation 1
   ENCUT  =  600.0 eV  44.10 Ry    6.64 a.u.   3.99  5.99  7.99*2*pi/ulx,y,z
   ENINI  =  600.0     initial cutoff
   ENAUG  =  627.1 eV  augmentation charge cutoff
   NELM   =     60;   NELMIN=  2; NELMDL=  0     # of ELM steps 
   EDIFF  = 0.1E-03   stopping-criterion for ELM
   LREAL  =      T    real-space projection
   NLSPLINE    = F    spline interpolate recip. space projectors
   LCOMPAT=      F    compatible to vasp.4.4
   GGA_COMPAT  = F    GGA compatible to vasp.4.4-vasp.4.6
   LMAXPAW     = -100 max onsite density
   LMAXMIX     =    4 max onsite mixed and CHGCAR
   VOSKOWN=      0    Vosko Wilk Nusair interpolation
   ROPT   =   -0.00025  -0.00025
 Ionic relaxation
   EDIFFG = 0.1E-02   stopping-criterion for IOM
   NSW    =      0    number of steps for IOM
   NBLOCK =      1;   KBLOCK =      1    inner block; outer block 
   IBRION =     -1    ionic relax: 0-MD 1-quasi-New 2-CG
   NFREE  =      0    steps in history (QN), initial steepest desc. (CG)
   ISIF   =      2    stress and relaxation
   IWAVPR =     10    prediction:  0-non 1-charg 2-wave 3-comb
   ISYM   =      2    0-nonsym 1-usesym 2-fastsym
   LCORR  =      T    Harris-Foulkes like correction to forces

   POTIM  = 0.5000    time-step for ionic-motion
   TEIN   =    0.0    initial temperature
   TEBEG  =    0.0;   TEEND  =   0.0 temperature during run
   SMASS  =  -3.00    Nose mass-parameter (am)
   estimated Nose-frequenzy (Omega)   =  0.10E-29 period in steps =****** mass=  -0.914E-28a.u.
   SCALEE = 1.0000    scale energy and forces
   NPACO  =    256;   APACO  = 16.0  distance and # of slots for P.C.
   PSTRESS=    0.0 pullay stress

  Mass of Ions in am
   POMASS =  14.00 16.00
  Ionic Valenz
   ZVAL   =   5.00  6.00
  Atomic Wigner-Seitz radii
   RWIGS  =  -1.00 -1.00
  virtual crystal weights 
   VCA    =   1.00  1.00
   NELECT =      11.0000    total number of electrons
   NUPDOWN=      -1.0000    fix difference up-down

 DOS related values:
   EMIN   =  10.00;   EMAX   =-10.00  energy-range for DOS
   EFERMI =   0.00
   ISMEAR =     0;   SIGMA  =   0.10  broadening in eV -4-tet -1-fermi 0-gaus

 Electronic relaxation 2 (details)
   IALGO  =     68    algorithm
   LDIAG  =      T    sub-space diagonalisation (order eigenvalues)
   LSUBROT=      F    optimize rotation matrix (better conditioning)
   TURBO    =      0    0=normal 1=particle mesh
   IRESTART =      0    0=no restart 2=restart with 2 vectors
   NREBOOT  =      0    no. of reboots
   NMIN     =      0    reboot dimension
   EREF     =   0.00    reference energy to select bands
   IMIX   =      4    mixing-type and parameters
     AMIX     =   0.40;   BMIX     =  1.00
     AMIX_MAG =   1.60;   BMIX_MAG =  1.00
     AMIN     =   0.10
     WC   =   100.;   INIMIX=   1;  MIXPRE=   1;  MAXMIX= -45

 Intra band minimization:
   WEIMIN = 0.0000     energy-eigenvalue tresh-hold
   EBREAK =  0.10E-05  absolut break condition
   DEPER  =   0.30     relativ break condition  

   TIME   =   0.40     timestep for ELM

  volume/ion in A,a.u.               =      12.00        80.98
  Fermi-wavevector in a.u.,A,eV,Ry     =   1.262221  2.385251 21.676818  1.593201
  Thomas-Fermi vector in A             =   2.395640
 
 Write flags
   LWAVE        =      F    write WAVECAR
   LDOWNSAMPLE  =      F    k-point downsampling of WAVECAR
   LCHARG       =      F    write CHGCAR
   LVTOT        =      F    write LOCPOT, total local potential
   LVHAR        =      F    write LOCPOT, Hartree potential only
   LELF         =      F    write electronic localiz. function (ELF)
   LORBIT       =     10    0 simple, 1 ext, 2 COOP (PROOUT), +10 PAW based schemes


 Dipole corrections
   LMONO  =      F    monopole corrections only (constant potential shift)
   LDIPOL =      F    correct potential (dipole corrections)
   IDIPOL =      0    1-x, 2-y, 3-z, 4-all directions 
   EPSILON=  1.0000000 bulk dielectric constant

 Exchange correlation treatment:
   GGA     =    --    GGA type
   LEXCH   =     8    internal setting for exchange type
   VOSKOWN=      0    Vosko Wilk Nusair interpolation
   LHFCALC =     F    Hartree Fock is set to
   LHFONE  =     F    Hartree Fock one center treatment
   AEXX    =    0.0000 exact exchange contribution

 Linear response parameters
   LEPSILON=     F    determine dielectric tensor
   LRPA    =     F    only Hartree local field effects (RPA)
   LNABLA  =     F    use nabla operator in PAW spheres
   LVEL    =     F    velocity operator in full k-point grid
   LINTERFAST=   F  fast interpolation
   KINTER  =     0    interpolate to denser k-point grid
   CSHIFT  =0.1000    complex shift for real part using Kramers Kronig
   OMEGAMAX=  -1.0    maximum frequency
   DEG_THRESHOLD= 0.2000000E-02 threshold for treating states as degnerate
   RTIME   =   -0.100 relaxation time in fs
  (WPLASMAI=    0.000 imaginary part of plasma frequency in eV, 0.658/RTIME)
   DFIELD  = 0.0000000 0.0000000 0.0000000 field for delta impulse in time
 
 Orbital magnetization related:
   ORBITALMAG=     F  switch on orbital magnetization
   LCHIMAG   =     F  perturbation theory with respect to B field
   DQ        =  0.001000  dq finite difference perturbation B field
   LLRAUG    =     F  two centre corrections for induced B field



--------------------------------------------------------------------------------------------------------


 Static calculation
 charge density and potential will be updated during run
 non collinear spin polarized calculation
 RMM-DIIS sequential band-by-band and
  variant of blocked Davidson during initial phase
 perform sub-space diagonalisation
    before iterative eigenvector-optimisation
 modified Broyden-mixing scheme, WC =      100.0
 initial mixing is a Kerker type mixing with AMIX =  0.4000 and BMIX =      1.0000
 Hartree-type preconditioning will be used
 using additional bands           18
 real space projection scheme for non local part
 calculate Harris-corrections to forces 
   (improved forces if not selfconsistent)
 use gradient corrections 
 use of overlap-Matrix (Vanderbilt PP)
 Gauss-broadening in eV      SIGMA  =   0.10


--------------------------------------------------------------------------------------------------------


  energy-cutoff  :      600.00
  volume of cell :       24.00
      direct lattice vectors                 reciprocal lattice vectors
     2.000000000  0.000000000  0.000000000     0.500000000  0.000000000  0.000000000
     0.000000000  3.000000000  0.000000000     0.000000000  0.333333333  0.000000000
     0.000000000  0.000000000  4.000000000     0.000000000  0.000000000  0.250000000

  length of vectors
     2.000000000  3.000000000  4.000000000     0.500000000  0.333333333  0.250000000


 
 k-points in units of 2pi/SCALE and weight: Automatic generation                    
   0.12500000  0.08333333  0.00000000       0.250
  -0.12500000  0.08333333  0.00000000       0.250
   0.12500000 -0.08333333  0.00000000       0.250
  -0.12500000 -0.08333333  0.00000000       0.250
 
 k-points in reciprocal lattice and weights: Automatic generation                    
   0.25000000  0.25000000  0.00000000       0.250
  -0.25000000  0.25000000  0.00000000       0.250
   0.25000000 -0.25000000  0.00000000       0.250
  -0.25000000 -0.25000000  0.00000000       0.250
 
 position of ions in fractional coordinates (direct lattice) 
   0.50000000  0.50000000  0.55967097
   0.50000000  0.50000000  0.26270557
 
 position of ions in cartesian coordinates  (Angst):
   1.00000000  1.50000000  2.23868389
   1.00000000  1.50000000  1.05082228
 
 Euler angles ALPHA=     0.0000000  BETA=     0.0000000

 transformation matrix from SAXIS to cartesian coordinates
 ---------------------------------------------------------
     1.0000000 m_x     0.0000000 m_y     0.0000000 m_z
     0.0000000 m_x     1.0000000 m_y     0.0000000 m_z
     0.0000000 m_x     0.0000000 m_y     1.0000000 m_z

 transformation matrix from cartesian coordinates to SAXIS
 ---------------------------------------------------------
     1.0000000 m_x     0.0000000 m_y     0.0000000 m_z
     0.0000000 m_x     1.0000000 m_y     0.0000000 m_z
     0.0000000 m_x     0.0000000 m_y     1.0000000 m_z




--------------------------------------------------------------------------------------------------------


 k-point  1 :   0.2500 0.2500 0.0000  plane waves:    1596
 k-point  2 :  -0.2500 0.2500 0.0000  plane waves:    1596
 k-point  3 :   0.2500-0.2500 0.0000  plane waves:    1596
 k-point  4 :  -0.2500-0.2500 0.0000  plane waves:    1596

 maximum and minimum number of plane-waves per node :      1596     1596

 maximum number of plane-waves:      1596
 maximum index in each direction: 
   IXMAX=    4   IYMAX=    6   IZMAX=    7
   IXMIN=   -4   IYMIN=   -6   IZMIN=   -7


 serial   3D FFT for wavefunctions
 parallel 3D FFT for charge:
    minimum data exchange during FFTs selected (reduces bandwidth)


 total amount of memory used by VASP MPI-rank0    35487. kBytes
=======================================================================

   base      :      30000. kBytes
   nonlr-proj:        764. kBytes
   fftplans  :        704. kBytes
   grid      :       3784. kBytes
   one-center:         24. kBytes
   wavefun   :        211. kBytes
 
     INWAV:  cpu time    0.0000: real time    0.0000
 Broyden mixing: mesh for mixing (old mesh)
   NGX =  7   NGY = 11   NGZ = 15
  (NGX  = 32   NGY  = 48   NGZ  = 64)
  gives a total of   1155 points

 initial charge density was supplied:
 charge density of overlapping atoms calculated
 number of electron      11.0000000 magnetization       2.0000000      2.0000000      2.0000000
 keeping initial charge density in first step


--------------------------------------------------------------------------------------------------------


 Maximum index for non-local projection operator         5061
 Maximum index for augmentation-charges          585 (set IRDMAX)


--------------------------------------------------------------------------------------------------------


 First call to EWALD:  gamma=   0.614
 Maximum number of real-space cells 4x 3x 2
 Maximum number of reciprocal cells 2x 3x 4

    FEWALD:  cpu time    0.0010: real time    0.0010


--------------------------------------- Iteration      1(   1)  ---------------------------------------


    POTLOK:  cpu time    0.0183: real time    0.0334
    SETDIJ:  cpu time    0.0033: real time    0.0035
     EDDAV:  cpu time    0.0315: real time    0.0329
       DOS:  cpu time    0.0004: real time    0.0005
    --------------------------------------------
      LOOP:  cpu time    0.0536: real time    0.0703

 eigenvalue-minimisations  :   192
 total energy-change (2. order) : 0.5546515E+02  (-0.6194921E+03)
 number of electron      11.0000000 magnetization       2.0000000      2.0000000      2.0000000
 augmentation part       11.0000000 magnetization       2.0000000      2.0000000      2.0000000

 Free energy of the ion-electron system (eV)
  ---------------------------------------------------
  alpha Z        PSCENC =        20.47869267
  Ewald energy   TEWEN  =      -397.32884096
  -Hartree energ DENC   =      -264.42272684
  -exchange      EXHF   =         0.00000000
  -V(xc)+E(xc)   XCENC  =        48.26794867
  PAW double counting   =       357.28748739     -360.48061234
  entropy T*S    EENTRO =        -0.01291293
  eigenvalues    EBANDS =       -45.22417554
  atomic energy  EATOM  =       696.90028792
  Solvation  Ediel_sol  =         0.00000000
  ---------------------------------------------------
  free energy    TOTEN  =        55.46514803 eV

  energy without entropy =       55.47806096  energy(sigma->0) =       55.47160449


--------------------------------------------------------------------------------------------------------




--------------------------------------- Iteration      1(   2)  ---------------------------------------


     EDDAV:  cpu time    0.0356: real time    0.0360
       DOS:  cpu time    0.0001: real time    0.0001
    --------------------------------------------
      LOOP:  cpu time    0.0357: real time    0.0361

 eigenvalue-minimisations  :   276
 total energy-change (2. order) :-0.6361124E+02  (-0.5949421E+02)
 number of electron      11.0000000 magnetization       2.0000000      2.0000000      2.0000000
 augmentation part       11.0000000 magnetization       2.0000000      2.0000000      2.0000000

 Free energy of the ion-electron system (eV)
  ---------------------------------------------------
  alpha Z        PSCENC =        20.47869267
  Ewald energy   TEWEN  =      -397.32884096
  -Hartree energ DENC   =      -264.42272684
  -exchange      EXHF   =         0.00000000
  -V(xc)+E(xc)   XCENC  =        48.26794867
  PAW double counting   =       357.28748739     -360.48061234
  entropy T*S    EENTRO =        -0.00010950
  eigenvalues    EBANDS =      -108.84821456
  atomic energy  EATOM  =       696.90028792
  Solvation  Ediel_sol  =         0.00000000
  ---------------------------------------------------
  free energy    TOTEN  =        -8.14608755 eV

  energy without entropy =       -8.14597806  energy(sigma->0) =       -8.14603280


--------------------------------------------------------------------------------------------------------




--------------------------------------- Iteration      1(   3)  ---------------------------------------


     EDDAV:  cpu time    0.0282: real time    0.0285
       DOS:  cpu time    0.0001: real time    0.0001
    --------------------------------------------
      LOOP:  cpu time    0.0283: real time    0.0286

 eigenvalue-minimisations  :   216
 total energy-change (2. order) :-0.2308773E+01  (-0.2303476E+01)
 number of electron      11.0000000 magnetization       2.0000000      2.0000000      2.0000000
 augmentation part       11.0000000 magnetization       2.0000000      2.0000000      2.0000000

 Free energy of the ion-electron system (eV)
  ---------------------------------------------------
  alpha Z        PSCENC =        20.47869267
  Ewald energy   TEWEN  =      -397.32884096
  -Hartree energ DENC   =      -264.42272684
  -exchange      EXHF   =         0.00000000
  -V(xc)+E(xc)   XCENC  =        48.26794867
  PAW double counting   =       357.28748739     -360.48061234
  entropy T*S    EENTRO =        -0.00000111
  eigenvalues    EBANDS =      -111.15709644
  atomic energy  EATOM  =       696.90028792
  Solvation  Ediel_sol  =         0.00000000
  ---------------------------------------------------
  free energy    TOTEN  =       -10.45486105 eV

  energy without entropy =      -10.45485993  energy(sigma->0) =      -10.45486049


--------------------------------------------------------------------------------------------------------




--------------------------------------- Iteration      1(   4)  ---------------------------------------


     EDDAV:  cpu time    0.0304: real time    0.0308
       DOS:  cpu time    0.0001: real time    0.0001
    --------------------------------------------
      LOOP:  cpu time    0.0305: real time    0.0309

 eigenvalue-minimisations  :   240
 total energy-change (2. order) :-0.1077940E-01  (-0.1077922E-01)
 number of electron      11.0000000 magnetization       2.0000000      2.0000000      2.0000000
 augmentation part       11.0000000 magnetization       2.0000000      2.0000000      2.0000000

 Free energy of the ion-electron system (eV)
  ---------------------------------------------------
  alpha Z        PSCENC =        20.47869267
  Ewald energy   TEWEN  =      -397.32884096
  -Hartree energ DENC   =      -264.42272684
  -exchange      EXHF   =         0.00000000
  -V(xc)+E(xc)   XCENC  =        48.26794867
  PAW double counting   =       357.28748739     -360.48061234
  entropy T*S    EENTRO =        -0.00000112
  eigenvalues    EBANDS =      -111.16787584
  atomic energy  EATOM  =       696.90028792
  Solvation  Ediel_sol  =         0.00000000
  ---------------------------------------------------
  free energy    TOTEN  =       -10.46564045 eV

  energy without entropy =      -10.46563933  energy(sigma->0) =      -10.46563989


--------------------------------------------------------------------------------------------------------




--------------------------------------- Iteration      1(   5)  ---------------------------------------


     EDDAV:  cpu time    0.0266: real time    0.0274
       DOS:  cpu time    0.0001: real time    0.0001
 


 total charge     
 
# of ion       s       p       d       tot
------------------------------------------
    1        1.333   2.254   0.000   3.587
    2        1.634   3.552   0.000   5.185
--------------------------------------------------
tot          2.966   5.806   0.000   8.772
 


 magnetization (x)
 
# of ion       s       p       d       tot
------------------------------------------
    1        0.010   0.263   0.000   0.273
    2        0.005   0.192   0.000   0.197
--------------------------------------------------
tot          0.015   0.455   0.000   0.470
 


 magnetization (y)
 
# of ion       s       p       d       tot
------------------------------------------
    1        0.010   0.263   0.000   0.273
    2        0.005   0.192   0.000   0.197
--------------------------------------------------
tot          0.015   0.455   0.000   0.470
 


 magnetization (z)
 
# of ion       s       p       d       tot
------------------------------------------
    1        0.010   0.263   0.000   0.273
    2        0.005   0.192   0.000   0.197
--------------------------------------------------
tot          0.015   0.455   0.000   0.470
 
    CHARGE:  cpu time    0.0039: real time    0.0039
    MIXING:  cpu time    0.0006: real time    0.0008
    --------------------------------------------
      LOOP:  cpu time    0.0311: real time    0.0322

 eigenvalue-minimisations  :   204
 total energy-change (2. order) :-0.7660947E-04  (-0.7660952E-04)
 number of electron      11.0000001 magnetization       0.3801808      0.3801756      0.3803103
 augmentation part        0.7859143 magnetization      -0.0824685     -0.0824681     -0.0824321

 Broyden mixing:
  rms(total) = 0.12121E+01    rms(broyden)= 0.12108E+01
  rms(prec ) = 0.14235E+01
  weight for this iteration     100.00

 Free energy of the ion-electron system (eV)
  ---------------------------------------------------
  alpha Z        PSCENC =        20.47869267
  Ewald energy   TEWEN  =      -397.32884096
  -Hartree energ DENC   =      -264.42272684
  -exchange      EXHF   =         0.00000000
  -V(xc)+E(xc)   XCENC  =        48.26794867
  PAW double counting   =       357.28748739     -360.48061234
  entropy T*S    EENTRO =        -0.00000112
  eigenvalues    EBANDS =      -111.16795245
  atomic energy  EATOM  =       696.90028792
  Solvation  Ediel_sol  =         0.00000000
  ---------------------------------------------------
  free energy    TOTEN  =       -10.46571706 eV

  energy without entropy =      -10.46571594  energy(sigma->0) =      -10.46571650


--------------------------------------------------------------------------------------------------------




--------------------------------------- Iteration      1(   6)  ---------------------------------------


    POTLOK:  cpu time    0.0146: real time    0.0148
    SETDIJ:  cpu time    0.0026: real time    0.0026
    EDDIAG:  cpu time    0.0069: real time    0.0073
  RMM-DIIS:  cpu time    0.0157: real time    0.0158
    ORTHCH:  cpu time    0.0008: real time    0.0008
       DOS:  cpu time    0.0001: real time    0.0001
    CHARGE:  cpu time    0.0037: real time    0.0038
    MIXING:  cpu time    0.0005: real time    0.0005
    --------------------------------------------
      LOOP:  cpu time    0.0448: real time    0.0456

 eigenvalue-minimisations  :   192
 total energy-change (2. order) :-0.1056527E+01  (-0.1208024E+00)
 number of electron      11.0000001 magnetization       0.5617195      0.5617602      0.5616391
 augmentation part        0.7446618 magnetization       0.0884554      0.0884621      0.0884628

 Broyden mixing:
  rms(total) = 0.42450E+00    rms(broyden)= 0.42422E+00
  rms(prec ) = 0.58574E+00
  weight for this iteration     100.00

 eigenvalues of (default mixing * dielectric matrix)
  average eigenvalue GAMMA=   0.7742
  0.7742

 Free energy of the ion-electron system (eV)
  ---------------------------------------------------
  alpha Z        PSCENC =        20.47869267
  Ewald energy   TEWEN  =      -397.32884096
  -Hartree energ DENC   =      -269.32209206
  -exchange      EXHF   =         0.00000000
  -V(xc)+E(xc)   XCENC  =        47.91595058
  PAW double counting   =       396.38171641     -399.66471733
  entropy T*S    EENTRO =        -0.00000000
  eigenvalues    EBANDS =      -106.88324172
  atomic energy  EATOM  =       696.90028792
  Solvation  Ediel_sol  =         0.00000000
  ---------------------------------------------------
  free energy    TOTEN  =       -11.52224451 eV

  energy without entropy =      -11.52224451  energy(sigma->0) =      -11.52224451


--------------------------------------------------------------------------------------------------------




--------------------------------------- Iteration      1(   7)  ---------------------------------------


    POTLOK:  cpu time    0.0143: real time    0.0145
    SETDIJ:  cpu time    0.0026: real time    0.0026
    EDDIAG:  cpu time    0.0065: real time    0.0065
  RMM-DIIS:  cpu time    0.0149: real time    0.0150
    ORTHCH:  cpu time    0.0008: real time    0.0008
       DOS:  cpu time    0.0001: real time    0.0001
    CHARGE:  cpu time    0.0037: real time    0.0038
    MIXING:  cpu time    0.0005: real time    0.0005
    --------------------------------------------
      LOOP:  cpu time    0.0433: real time    0.0437

 eigenvalue-minimisations  :   192
 total energy-change (2. order) :-0.1440441E+00  (-0.1739689E-01)
 number of electron      11.0000001 magnetization       0.6052441      0.6052910      0.6050494
 augmentation part        0.7534300 magnetization       0.1345034      0.1345144      0.1344219

 Broyden mixing:
  rms(total) = 0.15869E+00    rms(broyden)= 0.15865E+00
  rms(prec ) = 0.26128E+00
  weight for this iteration     100.00

 eigenvalues of (default mixing * dielectric matrix)
  average eigenvalue GAMMA=   0.9448
  1.1444  0.7452

 Free energy of the ion-electron system (eV)
  ---------------------------------------------------
  alpha Z        PSCENC =        20.47869267
  Ewald energy   TEWEN  =      -397.32884096
  -Hartree energ DENC   =      -269.60629243
  -exchange      EXHF   =         0.00000000
  -V(xc)+E(xc)   XCENC  =        47.97994027
  PAW double counting   =       411.20850084     -414.50363849
  entropy T*S    EENTRO =        -0.00000000
  eigenvalues    EBANDS =      -106.79493844
  atomic energy  EATOM  =       696.90028792
  Solvation  Ediel_sol  =         0.00000000
  ---------------------------------------------------
  free energy    TOTEN  =       -11.66628864 eV

  energy without entropy =      -11.66628864  energy(sigma->0) =      -11.66628864


--------------------------------------------------------------------------------------------------------




--------------------------------------- Iteration      1(   8)  ---------------------------------------


    POTLOK:  cpu time    0.0142: real time    0.0145
    SETDIJ:  cpu time    0.0026: real time    0.0026
    EDDIAG:  cpu time    0.0065: real time    0.0065
  RMM-DIIS:  cpu time    0.0150: real time    0.0150
    ORTHCH:  cpu time    0.0008: real time    0.0008
       DOS:  cpu time    0.0001: real time    0.0001
    CHARGE:  cpu time    0.0037: real time    0.0037
    MIXING:  cpu time    0.0005: real time    0.0005
    --------------------------------------------
      LOOP:  cpu time    0.0433: real time    0.0436

 eigenvalue-minimisations  :   192
 total energy-change (2. order) : 0.1854926E-01  (-0.3321989E-02)
 number of electron      11.0000001 magnetization       0.5825454      0.5825630      0.5827136
 augmentation part        0.7432979 magnetization       0.1121837      0.1121862      0.1122207

 Broyden mixing:
  rms(total) = 0.68341E-01    rms(broyden)= 0.68317E-01
  rms(prec ) = 0.11269E+00
  weight for this iteration     100.00

 eigenvalues of (default mixing * dielectric matrix)
  average eigenvalue GAMMA=   1.1428
  1.9170  0.8151  0.6964

 Free energy of the ion-electron system (eV)
  ---------------------------------------------------
  alpha Z        PSCENC =        20.47869267
  Ewald energy   TEWEN  =      -397.32884096
  -Hartree energ DENC   =      -270.91049176
  -exchange      EXHF   =         0.00000000
  -V(xc)+E(xc)   XCENC  =        48.12777286
  PAW double counting   =       431.35395703     -434.65012955
  entropy T*S    EENTRO =        -0.00000000
  eigenvalues    EBANDS =      -105.61898758
  atomic energy  EATOM  =       696.90028792
  Solvation  Ediel_sol  =         0.00000000
  ---------------------------------------------------
  free energy    TOTEN  =       -11.64773938 eV

  energy without entropy =      -11.64773938  energy(sigma->0) =      -11.64773938


--------------------------------------------------------------------------------------------------------




--------------------------------------- Iteration      1(   9)  ---------------------------------------


    POTLOK:  cpu time    0.0142: real time    0.0145
    SETDIJ:  cpu time    0.0026: real time    0.0026
    EDDIAG:  cpu time    0.0064: real time    0.0065
  RMM-DIIS:  cpu time    0.0149: real time    0.0150
    ORTHCH:  cpu time    0.0008: real time    0.0008
       DOS:  cpu time    0.0001: real time    0.0001
    CHARGE:  cpu time    0.0037: real time    0.0037
    MIXING:  cpu time    0.0005: real time    0.0005
    --------------------------------------------
      LOOP:  cpu time    0.0432: real time    0.0435

 eigenvalue-minimisations  :   192
 total energy-change (2. order) : 0.4505192E-05  (-0.6991620E-03)
 number of electron      11.0000001 magnetization       0.5744948      0.5745929      0.5738724
 augmentation part        0.7447391 magnetization       0.1029911      0.1030265      0.1027716

 Broyden mixing:
  rms(total) = 0.23953E-01    rms(broyden)= 0.23937E-01
  rms(prec ) = 0.35782E-01
  weight for this iteration     100.00

 eigenvalues of (default mixing * dielectric matrix)
  average eigenvalue GAMMA=   1.1014
  2.1736  0.8659  0.7593  0.6069

 Free energy of the ion-electron system (eV)
  ---------------------------------------------------
  alpha Z        PSCENC =        20.47869267
  Ewald energy   TEWEN  =      -397.32884096
  -Hartree energ DENC   =      -270.99506588
  -exchange      EXHF   =         0.00000000
  -V(xc)+E(xc)   XCENC  =        48.14994984
  PAW double counting   =       439.90454523     -443.19112237
  entropy T*S    EENTRO =        -0.00000000
  eigenvalues    EBANDS =      -105.56618131
  atomic energy  EATOM  =       696.90028792
  Solvation  Ediel_sol  =         0.00000000
  ---------------------------------------------------
  free energy    TOTEN  =       -11.64773487 eV

  energy without entropy =      -11.64773487  energy(sigma->0) =      -11.64773487


--------------------------------------------------------------------------------------------------------




--------------------------------------- Iteration      1(  10)  ---------------------------------------


    POTLOK:  cpu time    0.0142: real time    0.0144
    SETDIJ:  cpu time    0.0026: real time    0.0026
    EDDIAG:  cpu time    0.0063: real time    0.0064
  RMM-DIIS:  cpu time    0.0149: real time    0.0149
    ORTHCH:  cpu time    0.0008: real time    0.0008
       DOS:  cpu time    0.0001: real time    0.0001
 


 total charge     
 
# of ion       s       p       d       tot
------------------------------------------
    1        1.336   2.299   0.000   3.635
    2        1.629   3.425   0.000   5.054
--------------------------------------------------
tot          2.965   5.724   0.000   8.689
 


 magnetization (x)
 
# of ion       s       p       d       tot
------------------------------------------
    1        0.008   0.259   0.000   0.267
    2        0.002   0.166   0.000   0.167
--------------------------------------------------
tot          0.010   0.425   0.000   0.435
 


 magnetization (y)
 
# of ion       s       p       d       tot
------------------------------------------
    1        0.008   0.260   0.000   0.268
    2        0.001   0.165   0.000   0.166
--------------------------------------------------
tot          0.010   0.425   0.000   0.435
 


 magnetization (z)
 
# of ion       s       p       d       tot
------------------------------------------
    1        0.008   0.258   0.000   0.266
    2        0.002   0.167   0.000   0.168
--------------------------------------------------
tot          0.010   0.425   0.000   0.435
 
    CHARGE:  cpu time    0.0039: real time    0.0039
    MIXING:  cpu time    0.0005: real time    0.0005
    --------------------------------------------
      LOOP:  cpu time    0.0432: real time    0.0437

 eigenvalue-minimisations  :   192
 total energy-change (2. order) :-0.1161091E-04  (-0.4711621E-03)
 number of electron      11.0000001 magnetization       0.5752405      0.5749433      0.5759565
 augmentation part        0.7445475 magnetization       0.1042194      0.1041412      0.1041540

 Broyden mixing:
  rms(total) = 0.18595E-01    rms(broyden)= 0.18592E-01
  rms(prec ) = 0.21597E-01
  weight for this iteration     100.00

 eigenvalues of (default mixing * dielectric matrix)
  average eigenvalue GAMMA=   1.0382
  2.2650  0.9999  0.7930  0.6790  0.4543

 Free energy of the ion-electron system (eV)
  ---------------------------------------------------
  alpha Z        PSCENC =        20.47869267
  Ewald energy   TEWEN  =      -397.32884096
  -Hartree energ DENC   =      -270.91966690
  -exchange      EXHF   =         0.00000000
  -V(xc)+E(xc)   XCENC  =        48.14650538
  PAW double counting   =       442.17684105     -445.45518849
  entropy T*S    EENTRO =        -0.00000000
  eigenvalues    EBANDS =      -105.64637715
  atomic energy  EATOM  =       696.90028792
  Solvation  Ediel_sol  =         0.00000000
  ---------------------------------------------------
  free energy    TOTEN  =       -11.64774649 eV

  energy without entropy =      -11.64774649  energy(sigma->0) =      -11.64774649


--------------------------------------------------------------------------------------------------------




--------------------------------------- Iteration      1(  11)  ---------------------------------------


    POTLOK:  cpu time    0.0143: real time    0.0146
    SETDIJ:  cpu time    0.0026: real time    0.0026
    EDDIAG:  cpu time    0.0064: real time    0.0065
  RMM-DIIS:  cpu time    0.0148: real time    0.0149
    ORTHCH:  cpu time    0.0008: real time    0.0008
       DOS:  cpu time    0.0001: real time    0.0001
    CHARGE:  cpu time    0.0037: real time    0.0037
    MIXING:  cpu time    0.0006: real time    0.0006
    --------------------------------------------
      LOOP:  cpu time    0.0433: real time    0.0437

 eigenvalue-minimisations  :   192
 total energy-change (2. order) :-0.1236317E-03  (-0.5156854E-03)
 number of electron      11.0000001 magnetization       0.5769871      0.5771676      0.5771421
 augmentation part        0.7447605 magnetization       0.1057949      0.1057868      0.1063095

 Broyden mixing:
  rms(total) = 0.13268E-01    rms(broyden)= 0.13263E-01
  rms(prec ) = 0.14165E-01
  weight for this iteration     100.00

 eigenvalues of (default mixing * dielectric matrix)
  average eigenvalue GAMMA=   1.0660
  2.3575  1.4012  0.7994  0.7994  0.6276  0.4112

 Free energy of the ion-electron system (eV)
  ---------------------------------------------------
  alpha Z        PSCENC =        20.47869267
  Ewald energy   TEWEN  =      -397.32884096
  -Hartree energ DENC   =      -270.86817163
  -exchange      EXHF   =         0.00000000
  -V(xc)+E(xc)   XCENC  =        48.14421971
  PAW double counting   =       443.03654116     -446.30931389
  entropy T*S    EENTRO =        -0.00000000
  eigenvalues    EBANDS =      -105.70128509
  atomic energy  EATOM  =       696.90028792
  Solvation  Ediel_sol  =         0.00000000
  ---------------------------------------------------
  free energy    TOTEN  =       -11.64787012 eV

  energy without entropy =      -11.64787012  energy(sigma->0) =      -11.64787012


--------------------------------------------------------------------------------------------------------




--------------------------------------- Iteration      1(  12)  ---------------------------------------


    POTLOK:  cpu time    0.0143: real time    0.0145
    SETDIJ:  cpu time    0.0026: real time    0.0026
    EDDIAG:  cpu time    0.0064: real time    0.0064
  RMM-DIIS:  cpu time    0.0149: real time    0.0149
    ORTHCH:  cpu time    0.0008: real time    0.0008
       DOS:  cpu time    0.0001: real time    0.0001
    CHARGE:  cpu time    0.0037: real time    0.0037
    MIXING:  cpu time    0.0006: real time    0.0006
    --------------------------------------------
      LOOP:  cpu time    0.0432: real time    0.0436

 eigenvalue-minimisations  :   192
 total energy-change (2. order) : 0.3798353E-04  (-0.3021459E-03)
 number of electron      11.0000001 magnetization       0.5773379      0.5772387      0.5774592
 augmentation part        0.7449255 magnetization       0.1062348      0.1061657      0.1061989

 Broyden mixing:
  rms(total) = 0.72009E-02    rms(broyden)= 0.71880E-02
  rms(prec ) = 0.75562E-02
  weight for this iteration     100.00

 eigenvalues of (default mixing * dielectric matrix)
  average eigenvalue GAMMA=   1.0113
  2.4124  1.5952  0.8356  0.8067  0.6540  0.4718  0.3034

 Free energy of the ion-electron system (eV)
  ---------------------------------------------------
  alpha Z        PSCENC =        20.47869267
  Ewald energy   TEWEN  =      -397.32884096
  -Hartree energ DENC   =      -270.84928358
  -exchange      EXHF   =         0.00000000
  -V(xc)+E(xc)   XCENC  =        48.14302379
  PAW double counting   =       443.44235518     -446.71230083
  entropy T*S    EENTRO =        -0.00000000
  eigenvalues    EBANDS =      -105.72176632
  atomic energy  EATOM  =       696.90028792
  Solvation  Ediel_sol  =         0.00000000
  ---------------------------------------------------
  free energy    TOTEN  =       -11.64783213 eV

  energy without entropy =      -11.64783213  energy(sigma->0) =      -11.64783213


--------------------------------------------------------------------------------------------------------




--------------------------------------- Iteration      1(  13)  ---------------------------------------


    POTLOK:  cpu time    0.0143: real time    0.0146
    SETDIJ:  cpu time    0.0026: real time    0.0026
    EDDIAG:  cpu time    0.0064: real time    0.0064
  RMM-DIIS:  cpu time    0.0148: real time    0.0149
    ORTHCH:  cpu time    0.0008: real time    0.0008
       DOS:  cpu time    0.0001: real time    0.0001
    CHARGE:  cpu time    0.0037: real time    0.0037
    MIXING:  cpu time    0.0006: real time    0.0006
    --------------------------------------------
      LOOP:  cpu time    0.0432: real time    0.0436

 eigenvalue-minimisations  :   192
 total energy-change (2. order) :-0.3386397E-04  (-0.1018323E-03)
 number of electron      11.0000001 magnetization       0.5773692      0.5772365      0.5777362
 augmentation part        0.7449255 magnetization       0.1063209      0.1064687      0.1060525

 Broyden mixing:
  rms(total) = 0.62608E-02    rms(broyden)= 0.62467E-02
  rms(prec ) = 0.64953E-02
  weight for this iteration     100.00

 eigenvalues of (default mixing * dielectric matrix)
  average eigenvalue GAMMA=   0.9790
  2.4640  1.7424  0.9173  0.7896  0.7314  0.5856  0.3828  0.2188

 Free energy of the ion-electron system (eV)
  ---------------------------------------------------
  alpha Z        PSCENC =        20.47869267
  Ewald energy   TEWEN  =      -397.32884096
  -Hartree energ DENC   =      -270.85528125
  -exchange      EXHF   =         0.00000000
  -V(xc)+E(xc)   XCENC  =        48.14317201
  PAW double counting   =       443.49916387     -446.76891059
  entropy T*S    EENTRO =        -0.00000000
  eigenvalues    EBANDS =      -105.71614966
  atomic energy  EATOM  =       696.90028792
  Solvation  Ediel_sol  =         0.00000000
  ---------------------------------------------------
  free energy    TOTEN  =       -11.64786600 eV

  energy without entropy =      -11.64786600  energy(sigma->0) =      -11.64786600


--------------------------------------------------------------------------------------------------------




--------------------------------------- Iteration      1(  14)  ---------------------------------------


    POTLOK:  cpu time    0.0143: real time    0.0146
    SETDIJ:  cpu time    0.0026: real time    0.0026
    EDDIAG:  cpu time    0.0064: real time    0.0064
  RMM-DIIS:  cpu time    0.0161: real time    0.0161
    ORTHCH:  cpu time    0.0008: real time    0.0008
       DOS:  cpu time    0.0001: real time    0.0001
    --------------------------------------------
      LOOP:  cpu time    0.0402: real time    0.0405

 eigenvalue-minimisations  :   192
 total energy-change (2. order) : 0.5317910E-04  (-0.5745418E-04)
 number of electron      11.0000001 magnetization       0.5773692      0.5772365      0.5777362
 augmentation part        0.7449255 magnetization       0.1063209      0.1064687      0.1060525

 Free energy of the ion-electron system (eV)
  ---------------------------------------------------
  alpha Z        PSCENC =        20.47869267
  Ewald energy   TEWEN  =      -397.32884096
  -Hartree energ DENC   =      -270.86450762
  -exchange      EXHF   =         0.00000000
  -V(xc)+E(xc)   XCENC  =        48.14368756
  PAW double counting   =       443.53983819     -446.80947513
  entropy T*S    EENTRO =        -0.00000000
  eigenvalues    EBANDS =      -105.70749544
  atomic energy  EATOM  =       696.90028792
  Solvation  Ediel_sol  =         0.00000000
  ---------------------------------------------------
  free energy    TOTEN  =       -11.64781282 eV

  energy without entropy =      -11.64781282  energy(sigma->0) =      -11.64781282


--------------------------------------------------------------------------------------------------------




 average (electrostatic) potential at core
  the test charge radii are     0.7089  0.7215
  (the norm of the test charge is              1.0000)
       1 -70.6604       2 -77.5643
 
 
 
 E-fermi :   1.8536     XC(G=0):  -8.9524     alpha+bet : -6.7415


 k-point     1 :       0.2500    0.2500    0.0000
  band No.  band energies     occupation 
      1     -25.1108      1.00000
      2     -24.6149      1.00000
      3     -11.1142      1.00000
      4     -10.2904      1.00000
      5      -7.6650      1.00000
      6      -7.2977      1.00000
      7      -6.6350      1.00000
      8      -5.3006      1.00000
      9      -4.7288      1.00000
     10      -4.2548      1.00000
     11       1.3047      1.00000
     12       2.3475      0.00000
     13       2.8772      0.00000
     14       3.2917      0.00000
     15      10.8231      0.00000
     16      11.3455      0.00000
     17      14.1775      0.00000
     18      14.5502      0.00000
     19      15.9214      0.00000
     20      16.3771      0.00000
     21      19.0779      0.00000
     22      19.3488      0.00000
     23      19.8355      0.00000
     24      20.6159      0.00000

 k-point     2 :      -0.2500    0.2500    0.0000
  band No.  band energies     occupation 
      1     -25.1110      1.00000
      2     -24.6146      1.00000
      3     -11.1137      1.00000
      4     -10.2911      1.00000
      5      -7.6617      1.00000
      6      -7.3010      1.00000
      7      -6.6347      1.00000
      8      -5.3007      1.00000
      9      -4.7332      1.00000
     10      -4.2502      1.00000
     11       1.3047      1.00000
     12       2.3481      0.00000
     13       2.8765      0.00000
     14       3.2917      0.00000
     15      10.8233      0.00000
     16      11.3452      0.00000
     17      14.1764      0.00000
     18      14.5513      0.00000
     19      15.9216      0.00000
     20      16.3770      0.00000
     21      19.0788      0.00000
     22      19.3482      0.00000
     23      19.8350      0.00000
     24      20.6161      0.00000

 k-point     3 :       0.2500   -0.2500    0.0000
  band No.  band energies     occupation 
      1     -25.1108      1.00000
      2     -24.6149      1.00000
      3     -11.1142      1.00000
      4     -10.2904      1.00000
      5      -7.6663      1.00000
      6      -7.2971      1.00000
      7      -6.6340      1.00000
      8      -5.3006      1.00000
      9      -4.7282      1.00000
     10      -4.2557      1.00000
     11       1.3044      1.00000
     12       2.3475      0.00000
     13       2.8772      0.00000
     14       3.2920      0.00000
     15      10.8231      0.00000
     16      11.3455      0.00000
     17      14.1806      0.00000
     18      14.5471      0.00000
     19      15.9177      0.00000
     20      16.3806      0.00000
     21      19.0767      0.00000
     22      19.3497      0.00000
     23      19.8365      0.00000
     24      20.6152      0.00000

 k-point     4 :      -0.2500   -0.2500    0.0000
  band No.  band energies     occupation 
      1     -25.1110      1.00000
      2     -24.6146      1.00000
      3     -11.1137      1.00000
      4     -10.2911      1.00000
      5      -7.6630      1.00000
      6      -7.3004      1.00000
      7      -6.6337      1.00000
      8      -5.3006      1.00000
      9      -4.7327      1.00000
     10      -4.2511      1.00000
     11       1.3044      1.00000
     12       2.3481      0.00000
     13       2.8765      0.00000
     14       3.2920      0.00000
     15      10.8233      0.00000
     16      11.3453      0.00000
     17      14.1795      0.00000
     18      14.5483      0.00000
     19      15.9179      0.00000
     20      16.3806      0.00000
     21      19.0775      0.00000
     22      19.3491      0.00000
     23      19.8360      0.00000
     24      20.6155      0.00000


--------------------------------------------------------------------------------------------------------


 soft charge-density along one line, spin component           1
         0         1         2         3         4         5         6         7         8         9
 total charge-density along one line
 
 soft charge-density along one line, spin component           2
         0         1         2         3         4         5         6         7         8         9
 total charge-density along one line
 
 soft charge-density along one line, spin component           3
         0         1         2         3         4         5         6         7         8         9
 total charge-density along one line
 
 soft charge-density along one line, spin component           4
         0         1         2         3         4         5         6         7         8         9
 total charge-density along one line
 
 pseudopotential strength for first ion, spin component:           1
 13.613   0.000   0.061   0.000  -0.000   0.000   0.010   0.000  -0.000   0.000  -0.000   0.000   0.021   0.000  -0.000   0.000
  0.061   0.000   0.005   0.000  -0.000   0.000   0.001   0.000  -0.000   0.000  -0.000   0.000   0.000   0.000  -0.000   0.000
 -0.000   0.000  -0.000   0.000  -6.992   0.000   0.000   0.000  -0.000   0.006  -0.050   0.000   0.000   0.000  -0.000   0.002
  0.010   0.000   0.001   0.000   0.000   0.000  -7.020   0.000  -0.000   0.000   0.000   0.000  -0.053   0.000  -0.000   0.000
 -0.000   0.000  -0.000   0.000  -0.000  -0.006  -0.000   0.000  -7.004   0.000  -0.000  -0.002  -0.000   0.000  -0.046   0.000
 -0.000   0.000  -0.000   0.000  -0.050   0.000   0.000   0.000  -0.000   0.002   0.890   0.000   0.000   0.000  -0.000   0.001
  0.021   0.000   0.000   0.000   0.000   0.000  -0.053   0.000  -0.000   0.000   0.000   0.000   0.891   0.000  -0.000   0.000
 -0.000   0.000  -0.000   0.000  -0.000  -0.002  -0.000   0.000  -0.046   0.000  -0.000  -0.001  -0.000   0.000   0.890   0.000
 pseudopotential strength for first ion, spin component:           2
  0.079  -0.079   0.003  -0.003  -0.000  -0.000  -0.001   0.001   0.000  -0.000  -0.000  -0.000  -0.000   0.000   0.000  -0.000
  0.003  -0.003   0.000  -0.000  -0.000  -0.000  -0.000   0.000   0.000  -0.000  -0.000  -0.000  -0.000   0.000   0.000  -0.000
 -0.000  -0.000  -0.000  -0.000  -0.094   0.094  -0.000  -0.006  -0.000  -0.000  -0.024   0.024  -0.000  -0.002  -0.000  -0.000
 -0.001   0.001  -0.000   0.000  -0.000   0.006  -0.013   0.013  -0.006  -0.000  -0.000   0.002  -0.002   0.002  -0.002  -0.000
  0.000  -0.000   0.000  -0.000  -0.000  -0.000   0.007  -0.000  -0.017   0.017  -0.000  -0.000   0.002  -0.000  -0.003   0.003
 -0.000  -0.000  -0.000  -0.000  -0.024   0.024  -0.000  -0.002  -0.000  -0.000  -0.004   0.004  -0.000  -0.001  -0.000  -0.000
 -0.000   0.000  -0.000   0.000  -0.000   0.002  -0.002   0.002  -0.002  -0.000  -0.000   0.001  -0.001   0.001  -0.001  -0.000
  0.000  -0.000   0.000  -0.000  -0.000  -0.000   0.002  -0.000  -0.003   0.003  -0.000  -0.000   0.001  -0.000  -0.001   0.001
 pseudopotential strength for first ion, spin component:           3
  0.079   0.079   0.003   0.003  -0.000   0.000  -0.001  -0.001   0.000   0.000  -0.000   0.000  -0.000  -0.000   0.000   0.000
  0.003   0.003   0.000   0.000  -0.000   0.000  -0.000  -0.000   0.000   0.000  -0.000   0.000  -0.000  -0.000   0.000   0.000
 -0.000   0.000  -0.000   0.000  -0.094  -0.094  -0.000  -0.006  -0.000   0.000  -0.024  -0.024  -0.000  -0.002  -0.000   0.000
 -0.001  -0.001  -0.000  -0.000  -0.000   0.006  -0.013  -0.013   0.007   0.000  -0.000   0.002  -0.002  -0.002   0.002   0.000
  0.000   0.000   0.000   0.000  -0.000   0.000  -0.006   0.000  -0.017  -0.017  -0.000   0.000  -0.002   0.000  -0.003  -0.003
 -0.000   0.000  -0.000   0.000  -0.024  -0.024  -0.000  -0.002  -0.000   0.000  -0.004  -0.004  -0.000  -0.001  -0.000   0.000
 -0.000  -0.000  -0.000  -0.000  -0.000   0.002  -0.002  -0.002   0.002   0.000  -0.000   0.001  -0.001  -0.001   0.001   0.000
  0.000   0.000   0.000   0.000  -0.000   0.000  -0.002   0.000  -0.003  -0.003  -0.000   0.000  -0.001   0.000  -0.001  -0.001
 pseudopotential strength for first ion, spin component:           4
 13.454   0.000   0.054   0.000   0.000   0.000   0.012   0.000   0.000   0.000   0.000   0.000   0.021   0.000   0.000   0.000
  0.054   0.000   0.004   0.000   0.000   0.000   0.001   0.000   0.000   0.000   0.000   0.000   0.000   0.000   0.000   0.000
  0.000   0.000   0.000   0.000  -6.804   0.000  -0.000   0.000   0.000  -0.006  -0.001   0.000  -0.000   0.000   0.000  -0.002
  0.012   0.000   0.001   0.000  -0.000   0.000  -6.994   0.000   0.000   0.000  -0.000   0.000  -0.050   0.000   0.000   0.000
  0.000   0.000   0.000   0.000   0.000   0.006   0.000   0.000  -6.970   0.000   0.000   0.002   0.000   0.000  -0.040   0.000
  0.000   0.000   0.000   0.000  -0.001   0.000  -0.000   0.000   0.000  -0.002   0.899   0.000  -0.000   0.000   0.000  -0.001
  0.021   0.000   0.000   0.000  -0.000   0.000  -0.050   0.000   0.000   0.000  -0.000   0.000   0.893   0.000   0.000   0.000
  0.000   0.000   0.000   0.000   0.000   0.002   0.000   0.000  -0.040   0.000   0.000   0.001   0.000   0.000   0.893   0.000
 total augmentation occupancy for first ion, spin component:           1
  1.882  -0.279  -0.000   0.169  -0.000   0.000   0.091  -0.000
 -0.279   0.747  -0.000   0.673   0.000  -0.000  -0.333   0.000
 -0.000  -0.000   1.439  -0.000   0.000  -0.073  -0.000   0.000
  0.169   0.673  -0.000   1.337  -0.000   0.000  -0.377  -0.000
 -0.000   0.000   0.000  -0.000   0.807   0.000  -0.000  -0.161
  0.000  -0.000  -0.073   0.000   0.000   0.038  -0.000   0.000
  0.091  -0.333  -0.000  -0.377  -0.000  -0.000   0.174   0.000
 -0.000   0.000   0.000  -0.000  -0.161   0.000   0.000   0.039
 total augmentation occupancy for first ion, spin component:           2
  0.016   0.026   0.000   0.002   0.000  -0.000  -0.002   0.000
  0.026  -0.004  -0.000   0.001  -0.000   0.000   0.002   0.000
  0.000  -0.000   0.429   0.000   0.004   0.047   0.000   0.001
  0.002   0.001   0.000   0.003   0.000   0.000   0.000   0.000
  0.000  -0.000   0.004   0.000   0.011   0.000  -0.000   0.000
 -0.000   0.000   0.047   0.000   0.000   0.002  -0.000   0.000
 -0.002   0.002   0.000   0.000  -0.000  -0.000  -0.000  -0.000
  0.000   0.000   0.001   0.000   0.000   0.000  -0.000  -0.000
 total augmentation occupancy for first ion, spin component:           3
  0.015   0.027  -0.000   0.001   0.000  -0.000  -0.002   0.000
  0.027  -0.005  -0.000   0.001   0.000   0.000   0.002   0.000
 -0.000  -0.000   0.429   0.000  -0.004   0.047  -0.000  -0.001
  0.001   0.001   0.000   0.002   0.000   0.000  -0.000   0.000
  0.000   0.000  -0.004   0.000   0.007  -0.000  -0.000   0.000
 -0.000   0.000   0.047   0.000  -0.000   0.002  -0.000  -0.000
 -0.002   0.002  -0.000  -0.000  -0.000  -0.000  -0.000  -0.000
  0.000   0.000  -0.001   0.000   0.000  -0.000  -0.000  -0.000
 total augmentation occupancy for first ion, spin component:           4
  0.016   0.026   0.000   0.002  -0.001   0.000  -0.002  -0.000
  0.026  -0.004   0.000   0.001  -0.000  -0.000   0.002  -0.000
  0.000   0.000   0.429  -0.000   0.000   0.047   0.000   0.000
  0.002   0.001  -0.000   0.003  -0.001  -0.000   0.000  -0.000
 -0.001  -0.000   0.000  -0.001   0.011   0.000   0.000   0.000
  0.000  -0.000   0.047  -0.000   0.000   0.002   0.000   0.000
 -0.002   0.002   0.000   0.000   0.000   0.000  -0.000   0.000
 -0.000  -0.000   0.000  -0.000   0.000   0.000   0.000  -0.000


------------------------ aborting loop because EDIFF is reached ----------------------------------------


 


 total charge     
 
# of ion       s       p       d       tot
------------------------------------------
    1        1.336   2.300   0.000   3.635
    2        1.629   3.426   0.000   5.055
--------------------------------------------------
tot          2.965   5.725   0.000   8.690
 


 magnetization (x)
 
# of ion       s       p       d       tot
------------------------------------------
    1        0.008   0.259   0.000   0.267
    2        0.002   0.166   0.000   0.167
--------------------------------------------------
tot          0.010   0.425   0.000   0.435
 


 magnetization (y)
 
# of ion       s       p       d       tot
------------------------------------------
    1        0.008   0.259   0.000   0.268
    2        0.002   0.166   0.000   0.167
--------------------------------------------------
tot          0.010   0.425   0.000   0.435
 


 magnetization (z)
 
# of ion       s       p       d       tot
------------------------------------------
    1        0.008   0.259   0.000   0.268
    2        0.002   0.166   0.000   0.167
--------------------------------------------------
tot          0.010   0.425   0.000   0.435
 
    CHARGE:  cpu time    0.0056: real time    0.0056
    FORLOC:  cpu time    0.0009: real time    0.0009
    FORNL :  cpu time    0.0122: real time    0.0123
    STRESS:  cpu time    0.0346: real time    0.0352
    FORHAR:  cpu time    0.0015: real time    0.0015
    MIXING:  cpu time    0.0009: real time    0.0009
    OFIELD:  cpu time    0.0000: real time    0.0000

  FORCE on cell =-STRESS in cart. coord.  units (eV):
  Direction    XX          YY          ZZ          XY          YZ          ZX
  --------------------------------------------------------------------------------------
  Alpha Z    20.47869    20.47869    20.47869
  Ewald     -16.14170  -314.19436   -66.99295    -0.00000     0.00000    -0.00000
  Hartree   185.47453    19.98498    65.41767     0.00000     0.00003     0.00000
  E(xc)     -50.46068   -51.19871   -49.97059    -0.00000    -0.00001     0.00000
  Local    -335.87561   101.68073  -145.25252    -0.00002    -0.00007    -0.00001
  n-local   -26.74134   -33.73129   -36.65184    -0.00001     0.00000    -0.00001
  augment     6.25517     8.11958     6.09568     0.00000     0.00000    -0.00000
  Kinetic   224.26911   249.27358   204.29964     0.00004     0.00004     0.00002
  Fock        0.00000     0.00000     0.00000     0.00000     0.00000     0.00000
  -------------------------------------------------------------------------------------
  Total       7.25817     0.41321    -2.57623     0.00001    -0.00001     0.00000
  in kB     484.53654    27.58459  -171.98227     0.00046    -0.00048     0.00008
  external pressure =      113.38 kB  Pullay stress =        0.00 kB


 VOLUME and BASIS-vectors are now :
 -----------------------------------------------------------------------------
  energy-cutoff  :      600.00
  volume of cell :       24.00
      direct lattice vectors                 reciprocal lattice vectors
     2.000000000  0.000000000  0.000000000     0.500000000  0.000000000  0.000000000
     0.000000000  3.000000000  0.000000000     0.000000000  0.333333333  0.000000000
     0.000000000  0.000000000  4.000000000     0.000000000  0.000000000  0.250000000

  length of vectors
     2.000000000  3.000000000  4.000000000     0.500000000  0.333333333  0.250000000


 FORCES acting on ions
    electron-ion (+dipol)            ewald-force                    non-local-force                 convergence-correction
 -----------------------------------------------------------------------------------------------
   0.146E-04 0.124E-03 -.273E+03   -.187E-14 -.487E-15 0.311E+03   0.211E-04 -.314E-04 -.380E+02   -.110E-04 -.520E-04 -.814E-03
   0.502E-05 -.279E-04 0.254E+03   0.182E-14 0.641E-15 -.311E+03   0.122E-04 -.579E-05 0.567E+02   -.109E-04 0.364E-05 -.362E-02
 -----------------------------------------------------------------------------------------------
   0.196E-04 0.963E-04 -.186E+02   -.463E-16 0.153E-15 0.000E+00   0.333E-04 -.372E-04 0.186E+02   -.219E-04 -.484E-04 -.443E-02
 
 
 POSITION                                       TOTAL-FORCE (eV/Angst)
 -----------------------------------------------------------------------------------
      1.00000      1.50000      2.23868         0.000009      0.000035      0.004387
      1.00000      1.50000      1.05082        -0.000009     -0.000035     -0.004387
 -----------------------------------------------------------------------------------
    total drift:                                0.000031      0.000011      0.005139


--------------------------------------------------------------------------------------------------------



  FREE ENERGIE OF THE ION-ELECTRON SYSTEM (eV)
  ---------------------------------------------------
  free  energy   TOTEN  =       -11.64781282 eV

  energy  without entropy=      -11.64781282  energy(sigma->0) =      -11.64781282
 


--------------------------------------------------------------------------------------------------------


    POTLOK:  cpu time    0.0170: real time    0.0171


--------------------------------------------------------------------------------------------------------


     LOOP+:  cpu time    0.6463: real time    0.6726
    4ORBIT:  cpu time    0.0000: real time    0.0000

 Spin-Orbit-Coupling matrix elements

 Ion:    1  E_soc:     -0.0001365
 l=   1
     0.0000000    -0.0000107    -0.0000425
    -0.0000107     0.0000000    -0.0000151
    -0.0000425    -0.0000151     0.0000000
 l=   2
     0.0000000     0.0000000     0.0000000     0.0000000     0.0000000
     0.0000000     0.0000000     0.0000000     0.0000000     0.0000000
     0.0000000     0.0000000     0.0000000     0.0000000     0.0000000
     0.0000000     0.0000000     0.0000000     0.0000000     0.0000000
     0.0000000     0.0000000     0.0000000     0.0000000     0.0000000
 l=   3
     0.0000000     0.0000000     0.0000000     0.0000000     0.0000000     0.0000000     0.0000000
     0.0000000     0.0000000     0.0000000     0.0000000     0.0000000     0.0000000     0.0000000
     0.0000000     0.0000000     0.0000000     0.0000000     0.0000000     0.0000000     0.0000000
     0.0000000     0.0000000     0.0000000     0.0000000     0.0000000     0.0000000     0.0000000
     0.0000000     0.0000000     0.0000000     0.0000000     0.0000000     0.0000000     0.0000000
     0.0000000     0.0000000     0.0000000     0.0000000     0.0000000     0.0000000     0.0000000
     0.0000000     0.0000000     0.0000000     0.0000000     0.0000000     0.0000000     0.0000000

 Ion:    2  E_soc:     -0.0002672
 l=   1
     0.0000000    -0.0000278    -0.0000729
    -0.0000278     0.0000000    -0.0000329
    -0.0000729    -0.0000329     0.0000000
 l=   2
     0.0000000     0.0000000     0.0000000     0.0000000     0.0000000
     0.0000000     0.0000000     0.0000000     0.0000000     0.0000000
     0.0000000     0.0000000     0.0000000     0.0000000     0.0000000
     0.0000000     0.0000000     0.0000000     0.0000000     0.0000000
     0.0000000     0.0000000     0.0000000     0.0000000     0.0000000
 l=   3
     0.0000000     0.0000000     0.0000000     0.0000000     0.0000000     0.0000000     0.0000000
     0.0000000     0.0000000     0.0000000     0.0000000     0.0000000     0.0000000     0.0000000
     0.0000000     0.0000000     0.0000000     0.0000000     0.0000000     0.0000000     0.0000000
     0.0000000     0.0000000     0.0000000     0.0000000     0.0000000     0.0000000     0.0000000
     0.0000000     0.0000000     0.0000000     0.0000000     0.0000000     0.0000000     0.0000000
     0.0000000     0.0000000     0.0000000     0.0000000     0.0000000     0.0000000     0.0000000
     0.0000000     0.0000000     0.0000000     0.0000000     0.0000000     0.0000000     0.0000000
 


 total charge     
 
# of ion       s       p       d       tot
------------------------------------------
    1        1.336   2.300   0.000   3.635
    2        1.629   3.426   0.000   5.055
--------------------------------------------------
tot          2.965   5.725   0.000   8.690
 


 magnetization (x)
 
# of ion       s       p       d       tot
------------------------------------------
    1        0.008   0.259   0.000   0.267
    2        0.002   0.166   0.000   0.167
--------------------------------------------------
tot          0.010   0.425   0.000   0.435
 


 magnetization (y)
 
# of ion       s       p       d       tot
------------------------------------------
    1        0.008   0.259   0.000   0.268
    2        0.002   0.166   0.000   0.167
--------------------------------------------------
tot          0.010   0.425   0.000   0.435
 


 magnetization (z)
 
# of ion       s       p       d       tot
------------------------------------------
    1        0.008   0.259   0.000   0.268
    2        0.002   0.166   0.000   0.167
--------------------------------------------------
tot          0.010   0.425   0.000   0.435
 

 total amount of memory used by VASP MPI-rank0    35487. kBytes
=======================================================================

   base      :      30000. kBytes
   nonlr-proj:        764. kBytes
   fftplans  :        704. kBytes
   grid      :       3784. kBytes
   one-center:         24. kBytes
   wavefun   :        211. kBytes
 
  
  
 General timing and accounting informations for this job:
 ========================================================
  
                  Total CPU time used (sec):        1.622
                            User time (sec):        1.419
                          System time (sec):        0.204
                         Elapsed time (sec):        3.367
  
                   Maximum memory used (kb):      290428.
                   Average memory used (kb):           0.
  
                          Minor page faults:        21864
                          Major page faults:           62
                 Voluntary context switches:         3979
