PROCAR new format
# of k-points:    4         # of bands:   24         # of ions:    2

 k-point     1 :    0.25000000 0.25000000 0.00000000     weight = 0.25000000

band     1 # energy  -25.11080587 # occ.  1.00000000
 
ion      s      p      d    tot
    1  0.249  0.119  0.000  0.368
    2  0.522  0.108  0.000  0.630
tot    0.772  0.227  0.000  0.998
    1  0.144  0.069  0.000  0.213
    2  0.302  0.062  0.000  0.365
tot    0.446  0.131  0.000  0.577
    1  0.144  0.068  0.000  0.212
    2  0.301  0.062  0.000  0.364
tot    0.445  0.131  0.000  0.576
    1  0.144  0.068  0.000  0.212
    2  0.302  0.062  0.000  0.364
tot    0.445  0.131  0.000  0.576
 
band     2 # energy  -24.61486179 # occ.  1.00000000
 
ion      s      p      d    tot
    1  0.242  0.123  0.000  0.365
    2  0.523  0.113  0.000  0.636
tot    0.765  0.236  0.000  1.001
    1 -0.140 -0.071  0.000 -0.211
    2 -0.303 -0.065  0.000 -0.368
tot   -0.442 -0.136  0.000 -0.579
    1 -0.139 -0.071  0.000 -0.210
    2 -0.302 -0.065  0.000 -0.367
tot   -0.441 -0.136  0.000 -0.577
    1 -0.139 -0.071  0.000 -0.210
    2 -0.302 -0.065  0.000 -0.367
tot   -0.441 -0.136  0.000 -0.577
 
band     3 # energy  -11.11416569 # occ.  1.00000000
 
ion      s      p      d    tot
    1  0.332  0.025  0.000  0.358
    2  0.267  0.154  0.000  0.421
tot    0.599  0.179  0.000  0.778
    1  0.191  0.015  0.000  0.206
    2  0.154  0.089  0.000  0.242
tot    0.345  0.103  0.000  0.448
    1  0.192  0.015  0.000  0.207
    2  0.154  0.089  0.000  0.244
tot    0.347  0.104  0.000  0.450
    1  0.192  0.015  0.000  0.206
    2  0.154  0.089  0.000  0.243
tot    0.346  0.103  0.000  0.449
 
band     4 # energy  -10.29044199 # occ.  1.00000000
 
ion      s      p      d    tot
    1  0.313  0.022  0.000  0.335
    2  0.264  0.182  0.000  0.446
tot    0.578  0.204  0.000  0.781
    1 -0.181 -0.012  0.000 -0.193
    2 -0.152 -0.105  0.000 -0.257
tot   -0.333 -0.117  0.000 -0.450
    1 -0.181 -0.013  0.000 -0.194
    2 -0.153 -0.105  0.000 -0.258
tot   -0.334 -0.118  0.000 -0.452
    1 -0.181 -0.013  0.000 -0.193
    2 -0.153 -0.105  0.000 -0.257
tot   -0.333 -0.118  0.000 -0.451
 
band     5 # energy   -7.66504876 # occ.  1.00000000
 
ion      s      p      d    tot
    1  0.010  0.323  0.000  0.333
    2  0.000  0.400  0.000  0.400
tot    0.010  0.723  0.000  0.733
    1  0.006  0.185  0.000  0.190
    2  0.000  0.228  0.000  0.228
tot    0.006  0.413  0.000  0.419
    1  0.006  0.190  0.000  0.196
    2  0.000  0.235  0.000  0.235
tot    0.006  0.425  0.000  0.431
    1  0.006  0.185  0.000  0.191
    2  0.000  0.229  0.000  0.229
tot    0.006  0.414  0.000  0.420
 
band     6 # energy   -7.29765083 # occ.  1.00000000
 
ion      s      p      d    tot
    1  0.014  0.326  0.000  0.340
    2  0.000  0.388  0.000  0.388
tot    0.015  0.714  0.000  0.728
    1 -0.008 -0.186  0.000 -0.195
    2 -0.000 -0.222  0.000 -0.222
tot   -0.009 -0.408  0.000 -0.417
    1 -0.008 -0.191  0.000 -0.199
    2 -0.000 -0.227  0.000 -0.227
tot   -0.008 -0.418  0.000 -0.427
    1 -0.008 -0.187  0.000 -0.195
    2 -0.000 -0.223  0.000 -0.223
tot   -0.008 -0.409  0.000 -0.418
 
band     7 # energy   -6.63496456 # occ.  1.00000000
 
ion      s      p      d    tot
    1  0.001  0.271  0.000  0.272
    2  0.000  0.445  0.000  0.445
tot    0.001  0.717  0.000  0.718
    1  0.001  0.157  0.000  0.158
    2  0.000  0.258  0.000  0.258
tot    0.001  0.415  0.000  0.416
    1  0.001  0.156  0.000  0.157
    2  0.000  0.257  0.000  0.257
tot    0.001  0.414  0.000  0.414
    1  0.001  0.156  0.000  0.157
    2  0.000  0.256  0.000  0.256
tot    0.001  0.412  0.000  0.413
 
band     8 # energy   -5.30060191 # occ.  1.00000000
 
ion      s      p      d    tot
    1  0.000  0.228  0.000  0.228
    2  0.000  0.465  0.000  0.465
tot    0.000  0.693  0.000  0.693
    1 -0.000 -0.131  0.000 -0.131
    2 -0.000 -0.268  0.000 -0.268
tot   -0.000 -0.399  0.000 -0.399
    1 -0.000 -0.132  0.000 -0.133
    2 -0.000 -0.270  0.000 -0.270
tot   -0.000 -0.402  0.000 -0.402
    1 -0.000 -0.131  0.000 -0.131
    2 -0.000 -0.267  0.000 -0.267
tot   -0.000 -0.398  0.000 -0.398
 
band     9 # energy   -4.72875544 # occ.  1.00000000
 
ion      s      p      d    tot
    1  0.081  0.239  0.000  0.320
    2  0.026  0.427  0.000  0.453
tot    0.107  0.666  0.000  0.773
    1  0.047  0.139  0.000  0.186
    2  0.015  0.248  0.000  0.263
tot    0.062  0.387  0.000  0.449
    1  0.046  0.137  0.000  0.182
    2  0.015  0.243  0.000  0.258
tot    0.061  0.380  0.000  0.441
    1  0.047  0.139  0.000  0.186
    2  0.015  0.248  0.000  0.263
tot    0.062  0.386  0.000  0.449
 
band    10 # energy   -4.25482127 # occ.  1.00000000
 
ion      s      p      d    tot
    1  0.091  0.227  0.000  0.318
    2  0.025  0.422  0.000  0.447
tot    0.116  0.649  0.000  0.765
    1 -0.053 -0.133  0.000 -0.186
    2 -0.015 -0.245  0.000 -0.260
tot   -0.068 -0.378  0.000 -0.446
    1 -0.052 -0.128  0.000 -0.180
    2 -0.014 -0.241  0.000 -0.255
tot   -0.066 -0.369  0.000 -0.435
    1 -0.053 -0.132  0.000 -0.185
    2 -0.015 -0.245  0.000 -0.260
tot   -0.068 -0.377  0.000 -0.445
 
band    11 # energy    1.30474243 # occ.  1.00000000
 
ion      s      p      d    tot
    1  0.002  0.397  0.000  0.398
    2  0.000  0.323  0.000  0.323
tot    0.002  0.720  0.000  0.721
    1  0.001  0.229  0.000  0.230
    2  0.000  0.186  0.000  0.186
tot    0.001  0.415  0.000  0.416
    1  0.001  0.229  0.000  0.230
    2  0.000  0.187  0.000  0.187
tot    0.001  0.416  0.000  0.416
    1  0.001  0.229  0.000  0.230
    2  0.000  0.186  0.000  0.186
tot    0.001  0.416  0.000  0.417
 
band    12 # energy    2.34754312 # occ.  0.00000000
 
ion      s      p      d    tot
    1  0.033  0.457  0.000  0.490
    2  0.009  0.284  0.000  0.294
tot    0.042  0.741  0.000  0.784
    1  0.019  0.263  0.000  0.282
    2  0.005  0.163  0.000  0.169
tot    0.024  0.426  0.000  0.450
    1  0.019  0.265  0.000  0.284
    2  0.005  0.166  0.000  0.171
tot    0.025  0.431  0.000  0.455
    1  0.019  0.263  0.000  0.282
    2  0.005  0.164  0.000  0.169
tot    0.024  0.427  0.000  0.451
 
band    13 # energy    2.87715133 # occ.  0.00000000
 
ion      s      p      d    tot
    1  0.038  0.466  0.000  0.503
    2  0.009  0.270  0.000  0.279
tot    0.047  0.735  0.000  0.782
    1 -0.022 -0.268  0.000 -0.289
    2 -0.005 -0.155  0.000 -0.160
tot   -0.027 -0.423  0.000 -0.450
    1 -0.022 -0.271  0.000 -0.293
    2 -0.005 -0.157  0.000 -0.162
tot   -0.027 -0.427  0.000 -0.455
    1 -0.022 -0.268  0.000 -0.290
    2 -0.005 -0.155  0.000 -0.161
tot   -0.027 -0.423  0.000 -0.450
 
band    14 # energy    3.29168338 # occ.  0.00000000
 
ion      s      p      d    tot
    1  0.001  0.400  0.000  0.401
    2  0.000  0.290  0.000  0.290
tot    0.002  0.690  0.000  0.692
    1 -0.001 -0.231  0.000 -0.231
    2 -0.000 -0.168  0.000 -0.168
tot   -0.001 -0.398  0.000 -0.399
    1 -0.001 -0.231  0.000 -0.232
    2 -0.000 -0.167  0.000 -0.167
tot   -0.001 -0.398  0.000 -0.399
    1 -0.001 -0.231  0.000 -0.232
    2 -0.000 -0.168  0.000 -0.168
tot   -0.001 -0.399  0.000 -0.400
 
band    15 # energy   10.82308388 # occ.  0.00000000
 
ion      s      p      d    tot
    1  0.023  0.079  0.000  0.103
    2  0.019  0.047  0.000  0.066
tot    0.042  0.126  0.000  0.169
    1  0.013  0.046  0.000  0.059
    2  0.011  0.027  0.000  0.038
tot    0.024  0.073  0.000  0.097
    1  0.013  0.046  0.000  0.059
    2  0.011  0.027  0.000  0.038
tot    0.024  0.073  0.000  0.097
    1  0.014  0.046  0.000  0.060
    2  0.011  0.028  0.000  0.038
tot    0.025  0.074  0.000  0.098
 
band    16 # energy   11.34550732 # occ.  0.00000000
 
ion      s      p      d    tot
    1  0.023  0.082  0.000  0.105
    2  0.020  0.050  0.000  0.070
tot    0.043  0.132  0.000  0.176
    1 -0.013 -0.047  0.000 -0.060
    2 -0.011 -0.029  0.000 -0.040
tot   -0.025 -0.076  0.000 -0.101
    1 -0.013 -0.047  0.000 -0.060
    2 -0.011 -0.029  0.000 -0.040
tot   -0.025 -0.076  0.000 -0.101
    1 -0.014 -0.048  0.000 -0.062
    2 -0.012 -0.029  0.000 -0.041
tot   -0.025 -0.077  0.000 -0.103
 
band    17 # energy   14.17752709 # occ.  0.00000000
 
ion      s      p      d    tot
    1  0.025  0.048  0.000  0.073
    2  0.017  0.202  0.000  0.220
tot    0.042  0.250  0.000  0.293
    1  0.015  0.028  0.000  0.043
    2  0.010  0.119  0.000  0.129
tot    0.025  0.147  0.000  0.172
    1  0.015  0.028  0.000  0.042
    2  0.010  0.118  0.000  0.128
tot    0.024  0.146  0.000  0.170
    1  0.014  0.027  0.000  0.041
    2  0.010  0.114  0.000  0.123
tot    0.024  0.141  0.000  0.165
 
band    18 # energy   14.55017857 # occ.  0.00000000
 
ion      s      p      d    tot
    1  0.020  0.034  0.000  0.055
    2  0.013  0.169  0.000  0.183
tot    0.033  0.204  0.000  0.237
    1 -0.012 -0.020  0.000 -0.032
    2 -0.008 -0.100  0.000 -0.107
tot   -0.020 -0.120  0.000 -0.139
    1 -0.012 -0.020  0.000 -0.032
    2 -0.008 -0.100  0.000 -0.107
tot   -0.020 -0.120  0.000 -0.140
    1 -0.011 -0.019  0.000 -0.030
    2 -0.007 -0.094  0.000 -0.102
tot   -0.019 -0.113  0.000 -0.132
 
band    19 # energy   15.92141390 # occ.  0.00000000
 
ion      s      p      d    tot
    1  0.038  0.327  0.000  0.365
    2  0.045  0.112  0.000  0.157
tot    0.083  0.439  0.000  0.522
    1  0.021  0.183  0.000  0.205
    2  0.025  0.062  0.000  0.087
tot    0.046  0.246  0.000  0.292
    1  0.023  0.193  0.000  0.216
    2  0.027  0.066  0.000  0.093
tot    0.049  0.260  0.000  0.309
    1  0.022  0.190  0.000  0.212
    2  0.026  0.065  0.000  0.091
tot    0.048  0.255  0.000  0.303
 
band    20 # energy   16.37709222 # occ.  0.00000000
 
ion      s      p      d    tot
    1  0.047  0.342  0.000  0.389
    2  0.051  0.144  0.000  0.195
tot    0.098  0.486  0.000  0.584
    1 -0.026 -0.193  0.000 -0.219
    2 -0.029 -0.081  0.000 -0.110
tot   -0.055 -0.274  0.000 -0.329
    1 -0.027 -0.201  0.000 -0.229
    2 -0.030 -0.084  0.000 -0.114
tot   -0.057 -0.286  0.000 -0.343
    1 -0.027 -0.199  0.000 -0.226
    2 -0.030 -0.084  0.000 -0.113
tot   -0.057 -0.283  0.000 -0.340
 
band    21 # energy   19.07793875 # occ.  0.00000000
 
ion      s      p      d    tot
    1  0.002  0.021  0.000  0.023
    2  0.028  0.039  0.000  0.067
tot    0.030  0.059  0.000  0.089
    1  0.001  0.012  0.000  0.013
    2  0.016  0.022  0.000  0.039
tot    0.017  0.034  0.000  0.051
    1  0.001  0.012  0.000  0.013
    2  0.016  0.022  0.000  0.039
tot    0.017  0.034  0.000  0.052
    1  0.001  0.012  0.000  0.013
    2  0.016  0.022  0.000  0.039
tot    0.017  0.034  0.000  0.052
 
band    22 # energy   19.34883873 # occ.  0.00000000
 
ion      s      p      d    tot
    1  0.007  0.016  0.000  0.023
    2  0.022  0.027  0.000  0.049
tot    0.028  0.043  0.000  0.072
    1 -0.004 -0.009  0.000 -0.013
    2 -0.013 -0.016  0.000 -0.029
tot   -0.016 -0.025  0.000 -0.042
    1 -0.004 -0.009  0.000 -0.013
    2 -0.012 -0.016  0.000 -0.028
tot   -0.016 -0.025  0.000 -0.041
    1 -0.004 -0.009  0.000 -0.013
    2 -0.012 -0.015  0.000 -0.028
tot   -0.016 -0.025  0.000 -0.041
 
band    23 # energy   19.83547090 # occ.  0.00000000
 
ion      s      p      d    tot
    1  0.030  0.064  0.000  0.094
    2  0.003  0.038  0.000  0.041
tot    0.033  0.102  0.000  0.135
    1  0.017  0.037  0.000  0.054
    2  0.002  0.022  0.000  0.024
tot    0.019  0.059  0.000  0.078
    1  0.017  0.037  0.000  0.054
    2  0.002  0.022  0.000  0.024
tot    0.019  0.059  0.000  0.078
    1  0.018  0.037  0.000  0.055
    2  0.002  0.022  0.000  0.023
tot    0.019  0.059  0.000  0.078
 
band    24 # energy   20.61587242 # occ.  0.00000000
 
ion      s      p      d    tot
    1  0.027  0.078  0.000  0.105
    2  0.009  0.049  0.000  0.058
tot    0.036  0.127  0.000  0.163
    1 -0.015 -0.045  0.000 -0.060
    2 -0.005 -0.028  0.000 -0.033
tot   -0.021 -0.073  0.000 -0.094
    1 -0.015 -0.045  0.000 -0.061
    2 -0.005 -0.028  0.000 -0.033
tot   -0.021 -0.073  0.000 -0.094
    1 -0.015 -0.045  0.000 -0.061
    2 -0.005 -0.028  0.000 -0.034
tot   -0.021 -0.074  0.000 -0.094
 

 k-point     2 :   -0.25000000 0.25000000 0.00000000     weight = 0.25000000

band     1 # energy  -25.11101725 # occ.  1.00000000
 
ion      s      p      d    tot
    1  0.249  0.119  0.000  0.368
    2  0.522  0.108  0.000  0.630
tot    0.772  0.227  0.000  0.998
    1  0.144  0.069  0.000  0.213
    2  0.302  0.062  0.000  0.364
tot    0.446  0.131  0.000  0.577
    1  0.144  0.069  0.000  0.213
    2  0.302  0.062  0.000  0.364
tot    0.446  0.131  0.000  0.577
    1  0.144  0.068  0.000  0.212
    2  0.301  0.062  0.000  0.364
tot    0.445  0.131  0.000  0.576
 
band     2 # energy  -24.61463184 # occ.  1.00000000
 
ion      s      p      d    tot
    1  0.242  0.123  0.000  0.365
    2  0.523  0.113  0.000  0.636
tot    0.765  0.236  0.000  1.001
    1 -0.140 -0.071  0.000 -0.211
    2 -0.302 -0.065  0.000 -0.367
tot   -0.442 -0.136  0.000 -0.578
    1 -0.140 -0.071  0.000 -0.211
    2 -0.302 -0.065  0.000 -0.368
tot   -0.442 -0.136  0.000 -0.578
    1 -0.139 -0.071  0.000 -0.210
    2 -0.302 -0.065  0.000 -0.367
tot   -0.441 -0.136  0.000 -0.577
 
band     3 # energy  -11.11372734 # occ.  1.00000000
 
ion      s      p      d    tot
    1  0.332  0.026  0.000  0.358
    2  0.267  0.154  0.000  0.420
tot    0.599  0.179  0.000  0.778
    1  0.192  0.015  0.000  0.206
    2  0.154  0.089  0.000  0.243
tot    0.346  0.104  0.000  0.449
    1  0.192  0.015  0.000  0.207
    2  0.154  0.088  0.000  0.242
tot    0.346  0.103  0.000  0.449
    1  0.192  0.015  0.000  0.207
    2  0.154  0.089  0.000  0.243
tot    0.346  0.104  0.000  0.450
 
band     4 # energy  -10.29112219 # occ.  1.00000000
 
ion      s      p      d    tot
    1  0.313  0.022  0.000  0.335
    2  0.264  0.182  0.000  0.447
tot    0.577  0.204  0.000  0.781
    1 -0.181 -0.013  0.000 -0.193
    2 -0.153 -0.105  0.000 -0.258
tot   -0.333 -0.118  0.000 -0.451
    1 -0.181 -0.012  0.000 -0.193
    2 -0.152 -0.106  0.000 -0.258
tot   -0.333 -0.118  0.000 -0.451
    1 -0.181 -0.013  0.000 -0.194
    2 -0.153 -0.105  0.000 -0.258
tot   -0.334 -0.118  0.000 -0.451
 
band     5 # energy   -7.66172316 # occ.  1.00000000
 
ion      s      p      d    tot
    1  0.010  0.324  0.000  0.333
    2  0.000  0.399  0.000  0.400
tot    0.010  0.723  0.000  0.733
    1  0.006  0.186  0.000  0.192
    2  0.000  0.230  0.000  0.230
tot    0.006  0.416  0.000  0.422
    1  0.006  0.185  0.000  0.191
    2  0.000  0.229  0.000  0.229
tot    0.006  0.414  0.000  0.419
    1  0.006  0.189  0.000  0.195
    2  0.000  0.233  0.000  0.233
tot    0.006  0.422  0.000  0.428
 
band     6 # energy   -7.30098579 # occ.  1.00000000
 
ion      s      p      d    tot
    1  0.015  0.325  0.000  0.340
    2  0.000  0.388  0.000  0.388
tot    0.015  0.713  0.000  0.728
    1 -0.008 -0.187  0.000 -0.195
    2 -0.000 -0.222  0.000 -0.223
tot   -0.008 -0.409  0.000 -0.418
    1 -0.009 -0.187  0.000 -0.195
    2 -0.000 -0.223  0.000 -0.223
tot   -0.009 -0.409  0.000 -0.418
    1 -0.008 -0.190  0.000 -0.199
    2 -0.000 -0.227  0.000 -0.227
tot   -0.009 -0.417  0.000 -0.425
 
band     7 # energy   -6.63466952 # occ.  1.00000000
 
ion      s      p      d    tot
    1  0.001  0.271  0.000  0.272
    2  0.000  0.445  0.000  0.445
tot    0.001  0.717  0.000  0.718
    1  0.001  0.156  0.000  0.156
    2  0.000  0.256  0.000  0.256
tot    0.001  0.412  0.000  0.412
    1  0.001  0.158  0.000  0.159
    2  0.000  0.259  0.000  0.259
tot    0.001  0.417  0.000  0.417
    1  0.001  0.156  0.000  0.157
    2  0.000  0.256  0.000  0.256
tot    0.001  0.412  0.000  0.413
 
band     8 # energy   -5.30067265 # occ.  1.00000000
 
ion      s      p      d    tot
    1  0.000  0.228  0.000  0.228
    2  0.000  0.465  0.000  0.465
tot    0.000  0.693  0.000  0.693
    1 -0.000 -0.132  0.000 -0.132
    2 -0.000 -0.269  0.000 -0.269
tot   -0.000 -0.401  0.000 -0.401
    1  0.000 -0.132  0.000 -0.132
    2  0.000 -0.268  0.000 -0.268
tot    0.000 -0.400  0.000 -0.400
    1 -0.000 -0.131  0.000 -0.131
    2 -0.000 -0.267  0.000 -0.267
tot   -0.000 -0.398  0.000 -0.398
 
band     9 # energy   -4.73320447 # occ.  1.00000000
 
ion      s      p      d    tot
    1  0.081  0.238  0.000  0.319
    2  0.026  0.427  0.000  0.454
tot    0.107  0.666  0.000  0.773
    1  0.046  0.137  0.000  0.184
    2  0.015  0.246  0.000  0.261
tot    0.062  0.384  0.000  0.445
    1  0.048  0.139  0.000  0.187
    2  0.015  0.250  0.000  0.265
tot    0.063  0.389  0.000  0.452
    1  0.046  0.136  0.000  0.182
    2  0.015  0.244  0.000  0.259
tot    0.061  0.380  0.000  0.441
 
band    10 # energy   -4.25024883 # occ.  1.00000000
 
ion      s      p      d    tot
    1  0.091  0.227  0.000  0.319
    2  0.025  0.421  0.000  0.447
tot    0.116  0.649  0.000  0.765
    1 -0.052 -0.130  0.000 -0.183
    2 -0.015 -0.242  0.000 -0.257
tot   -0.067 -0.373  0.000 -0.440
    1 -0.054 -0.134  0.000 -0.188
    2 -0.015 -0.246  0.000 -0.261
tot   -0.068 -0.381  0.000 -0.449
    1 -0.052 -0.129  0.000 -0.182
    2 -0.014 -0.241  0.000 -0.255
tot   -0.066 -0.370  0.000 -0.437
 
band    11 # energy    1.30473126 # occ.  1.00000000
 
ion      s      p      d    tot
    1  0.002  0.397  0.000  0.398
    2  0.000  0.323  0.000  0.323
tot    0.002  0.720  0.000  0.721
    1  0.001  0.229  0.000  0.230
    2  0.000  0.186  0.000  0.186
tot    0.001  0.415  0.000  0.416
    1  0.001  0.229  0.000  0.230
    2  0.000  0.186  0.000  0.187
tot    0.001  0.416  0.000  0.417
    1  0.001  0.229  0.000  0.230
    2  0.000  0.186  0.000  0.186
tot    0.001  0.416  0.000  0.417
 
band    12 # energy    2.34811536 # occ.  0.00000000
 
ion      s      p      d    tot
    1  0.033  0.457  0.000  0.490
    2  0.009  0.284  0.000  0.293
tot    0.042  0.741  0.000  0.783
    1  0.019  0.264  0.000  0.283
    2  0.005  0.164  0.000  0.169
tot    0.024  0.428  0.000  0.452
    1  0.019  0.264  0.000  0.283
    2  0.005  0.164  0.000  0.169
tot    0.024  0.428  0.000  0.452
    1  0.019  0.264  0.000  0.283
    2  0.005  0.164  0.000  0.169
tot    0.024  0.428  0.000  0.452
 
band    13 # energy    2.87648358 # occ.  0.00000000
 
ion      s      p      d    tot
    1  0.038  0.465  0.000  0.503
    2  0.009  0.270  0.000  0.279
tot    0.047  0.735  0.000  0.782
    1 -0.022 -0.269  0.000 -0.290
    2 -0.005 -0.156  0.000 -0.161
tot   -0.027 -0.425  0.000 -0.452
    1 -0.022 -0.269  0.000 -0.290
    2 -0.005 -0.156  0.000 -0.161
tot   -0.027 -0.424  0.000 -0.452
    1 -0.022 -0.269  0.000 -0.290
    2 -0.005 -0.156  0.000 -0.161
tot   -0.027 -0.425  0.000 -0.452
 
band    14 # energy    3.29169503 # occ.  0.00000000
 
ion      s      p      d    tot
    1  0.001  0.400  0.000  0.401
    2  0.000  0.290  0.000  0.290
tot    0.002  0.690  0.000  0.692
    1 -0.001 -0.231  0.000 -0.231
    2 -0.000 -0.167  0.000 -0.167
tot   -0.001 -0.398  0.000 -0.399
    1 -0.001 -0.231  0.000 -0.232
    2 -0.000 -0.168  0.000 -0.168
tot   -0.001 -0.399  0.000 -0.399
    1 -0.001 -0.231  0.000 -0.232
    2 -0.000 -0.168  0.000 -0.168
tot   -0.001 -0.399  0.000 -0.400
 
band    15 # energy   10.82326983 # occ.  0.00000000
 
ion      s      p      d    tot
    1  0.023  0.079  0.000  0.103
    2  0.019  0.047  0.000  0.066
tot    0.042  0.127  0.000  0.169
    1  0.013  0.046  0.000  0.059
    2  0.011  0.027  0.000  0.038
tot    0.024  0.073  0.000  0.097
    1  0.013  0.046  0.000  0.059
    2  0.011  0.027  0.000  0.038
tot    0.024  0.072  0.000  0.096
    1  0.014  0.046  0.000  0.060
    2  0.011  0.028  0.000  0.038
tot    0.025  0.074  0.000  0.098
 
band    16 # energy   11.34523140 # occ.  0.00000000
 
ion      s      p      d    tot
    1  0.023  0.082  0.000  0.105
    2  0.020  0.050  0.000  0.070
tot    0.043  0.132  0.000  0.176
    1 -0.013 -0.047  0.000 -0.061
    2 -0.011 -0.029  0.000 -0.041
tot   -0.025 -0.076  0.000 -0.101
    1 -0.013 -0.047  0.000 -0.060
    2 -0.011 -0.029  0.000 -0.040
tot   -0.025 -0.076  0.000 -0.100
    1 -0.014 -0.048  0.000 -0.062
    2 -0.012 -0.029  0.000 -0.041
tot   -0.025 -0.077  0.000 -0.103
 
band    17 # energy   14.17639534 # occ.  0.00000000
 
ion      s      p      d    tot
    1  0.025  0.048  0.000  0.073
    2  0.017  0.202  0.000  0.220
tot    0.042  0.250  0.000  0.293
    1  0.015  0.028  0.000  0.043
    2  0.010  0.119  0.000  0.129
tot    0.025  0.147  0.000  0.172
    1  0.015  0.028  0.000  0.043
    2  0.010  0.119  0.000  0.129
tot    0.025  0.147  0.000  0.172
    1  0.014  0.027  0.000  0.041
    2  0.010  0.113  0.000  0.123
tot    0.024  0.140  0.000  0.164
 
band    18 # energy   14.55130514 # occ.  0.00000000
 
ion      s      p      d    tot
    1  0.020  0.034  0.000  0.055
    2  0.013  0.169  0.000  0.182
tot    0.033  0.204  0.000  0.237
    1 -0.012 -0.020  0.000 -0.032
    2 -0.008 -0.099  0.000 -0.107
tot   -0.019 -0.119  0.000 -0.139
    1 -0.012 -0.021  0.000 -0.033
    2 -0.008 -0.100  0.000 -0.108
tot   -0.020 -0.121  0.000 -0.140
    1 -0.011 -0.019  0.000 -0.030
    2 -0.007 -0.094  0.000 -0.101
tot   -0.018 -0.113  0.000 -0.131
 
band    19 # energy   15.92159697 # occ.  0.00000000
 
ion      s      p      d    tot
    1  0.038  0.327  0.000  0.365
    2  0.045  0.112  0.000  0.157
tot    0.083  0.439  0.000  0.522
    1  0.021  0.184  0.000  0.205
    2  0.025  0.062  0.000  0.088
tot    0.046  0.246  0.000  0.292
    1  0.022  0.193  0.000  0.215
    2  0.027  0.066  0.000  0.093
tot    0.049  0.259  0.000  0.308
    1  0.022  0.190  0.000  0.212
    2  0.026  0.065  0.000  0.091
tot    0.048  0.255  0.000  0.303
 
band    20 # energy   16.37704361 # occ.  0.00000000
 
ion      s      p      d    tot
    1  0.047  0.342  0.000  0.389
    2  0.051  0.144  0.000  0.195
tot    0.098  0.487  0.000  0.584
    1 -0.026 -0.193  0.000 -0.219
    2 -0.029 -0.081  0.000 -0.110
tot   -0.055 -0.274  0.000 -0.329
    1 -0.028 -0.201  0.000 -0.229
    2 -0.030 -0.085  0.000 -0.114
tot   -0.057 -0.286  0.000 -0.343
    1 -0.027 -0.199  0.000 -0.226
    2 -0.030 -0.084  0.000 -0.113
tot   -0.057 -0.283  0.000 -0.340
 
band    21 # energy   19.07878192 # occ.  0.00000000
 
ion      s      p      d    tot
    1  0.002  0.021  0.000  0.022
    2  0.028  0.039  0.000  0.067
tot    0.030  0.060  0.000  0.089
    1  0.001  0.012  0.000  0.013
    2  0.016  0.022  0.000  0.038
tot    0.017  0.034  0.000  0.051
    1  0.001  0.012  0.000  0.013
    2  0.016  0.022  0.000  0.038
tot    0.017  0.034  0.000  0.051
    1  0.001  0.012  0.000  0.013
    2  0.016  0.023  0.000  0.039
tot    0.017  0.035  0.000  0.052
 
band    22 # energy   19.34823631 # occ.  0.00000000
 
ion      s      p      d    tot
    1  0.007  0.016  0.000  0.023
    2  0.022  0.027  0.000  0.049
tot    0.028  0.043  0.000  0.072
    1 -0.004 -0.009  0.000 -0.013
    2 -0.013 -0.016  0.000 -0.029
tot   -0.016 -0.025  0.000 -0.042
    1 -0.004 -0.009  0.000 -0.013
    2 -0.013 -0.016  0.000 -0.028
tot   -0.016 -0.025  0.000 -0.041
    1 -0.004 -0.009  0.000 -0.013
    2 -0.012 -0.016  0.000 -0.028
tot   -0.016 -0.025  0.000 -0.041
 
band    23 # energy   19.83496325 # occ.  0.00000000
 
ion      s      p      d    tot
    1  0.030  0.064  0.000  0.094
    2  0.003  0.038  0.000  0.041
tot    0.033  0.102  0.000  0.135
    1  0.017  0.037  0.000  0.054
    2  0.002  0.022  0.000  0.024
tot    0.019  0.059  0.000  0.078
    1  0.017  0.037  0.000  0.055
    2  0.002  0.022  0.000  0.024
tot    0.019  0.059  0.000  0.078
    1  0.018  0.037  0.000  0.055
    2  0.002  0.022  0.000  0.023
tot    0.019  0.059  0.000  0.078
 
band    24 # energy   20.61612699 # occ.  0.00000000
 
ion      s      p      d    tot
    1  0.027  0.078  0.000  0.105
    2  0.009  0.049  0.000  0.058
tot    0.036  0.127  0.000  0.163
    1 -0.015 -0.045  0.000 -0.060
    2 -0.005 -0.028  0.000 -0.033
tot   -0.021 -0.073  0.000 -0.093
    1 -0.015 -0.045  0.000 -0.061
    2 -0.005 -0.028  0.000 -0.033
tot   -0.021 -0.074  0.000 -0.094
    1 -0.015 -0.045  0.000 -0.061
    2 -0.005 -0.028  0.000 -0.034
tot   -0.021 -0.074  0.000 -0.094
 

 k-point     3 :    0.25000000-0.25000000 0.00000000     weight = 0.25000000

band     1 # energy  -25.11079567 # occ.  1.00000000
 
ion      s      p      d    tot
    1  0.249  0.119  0.000  0.368
    2  0.522  0.108  0.000  0.630
tot    0.772  0.227  0.000  0.998
    1  0.144  0.069  0.000  0.213
    2  0.302  0.062  0.000  0.364
tot    0.446  0.131  0.000  0.577
    1  0.144  0.068  0.000  0.212
    2  0.301  0.062  0.000  0.364
tot    0.445  0.131  0.000  0.576
    1  0.144  0.068  0.000  0.212
    2  0.302  0.062  0.000  0.364
tot    0.445  0.131  0.000  0.576
 
band     2 # energy  -24.61487261 # occ.  1.00000000
 
ion      s      p      d    tot
    1  0.242  0.123  0.000  0.365
    2  0.523  0.113  0.000  0.636
tot    0.765  0.236  0.000  1.001
    1 -0.140 -0.071  0.000 -0.211
    2 -0.303 -0.065  0.000 -0.368
tot   -0.442 -0.136  0.000 -0.579
    1 -0.139 -0.071  0.000 -0.210
    2 -0.302 -0.065  0.000 -0.367
tot   -0.441 -0.136  0.000 -0.577
    1 -0.139 -0.071  0.000 -0.210
    2 -0.302 -0.065  0.000 -0.367
tot   -0.441 -0.136  0.000 -0.577
 
band     3 # energy  -11.11415194 # occ.  1.00000000
 
ion      s      p      d    tot
    1  0.332  0.025  0.000  0.358
    2  0.267  0.154  0.000  0.421
tot    0.599  0.179  0.000  0.778
    1  0.191  0.015  0.000  0.206
    2  0.154  0.089  0.000  0.242
tot    0.345  0.103  0.000  0.448
    1  0.192  0.015  0.000  0.207
    2  0.154  0.089  0.000  0.244
tot    0.347  0.104  0.000  0.450
    1  0.192  0.015  0.000  0.206
    2  0.154  0.089  0.000  0.243
tot    0.346  0.103  0.000  0.449
 
band     4 # energy  -10.29041814 # occ.  1.00000000
 
ion      s      p      d    tot
    1  0.313  0.022  0.000  0.335
    2  0.264  0.182  0.000  0.446
tot    0.578  0.204  0.000  0.781
    1 -0.181 -0.013  0.000 -0.193
    2 -0.152 -0.105  0.000 -0.257
tot   -0.333 -0.117  0.000 -0.450
    1 -0.181 -0.013  0.000 -0.194
    2 -0.153 -0.105  0.000 -0.258
tot   -0.334 -0.118  0.000 -0.452
    1 -0.181 -0.013  0.000 -0.193
    2 -0.153 -0.105  0.000 -0.258
tot   -0.333 -0.118  0.000 -0.451
 
band     5 # energy   -7.66631297 # occ.  1.00000000
 
ion      s      p      d    tot
    1  0.010  0.323  0.000  0.333
    2  0.000  0.400  0.000  0.400
tot    0.010  0.723  0.000  0.733
    1  0.006  0.185  0.000  0.190
    2  0.000  0.229  0.000  0.229
tot    0.006  0.413  0.000  0.419
    1  0.006  0.190  0.000  0.196
    2  0.000  0.236  0.000  0.236
tot    0.006  0.426  0.000  0.432
    1  0.006  0.184  0.000  0.190
    2  0.000  0.228  0.000  0.228
tot    0.006  0.412  0.000  0.418
 
band     6 # energy   -7.29707178 # occ.  1.00000000
 
ion      s      p      d    tot
    1  0.014  0.326  0.000  0.340
    2  0.000  0.388  0.000  0.388
tot    0.015  0.714  0.000  0.728
    1 -0.008 -0.186  0.000 -0.194
    2 -0.000 -0.221  0.000 -0.221
tot   -0.008 -0.407  0.000 -0.415
    1 -0.008 -0.193  0.000 -0.201
    2 -0.000 -0.229  0.000 -0.229
tot   -0.008 -0.422  0.000 -0.431
    1 -0.008 -0.186  0.000 -0.194
    2 -0.000 -0.221  0.000 -0.221
tot   -0.008 -0.407  0.000 -0.415
 
band     7 # energy   -6.63396183 # occ.  1.00000000
 
ion      s      p      d    tot
    1  0.001  0.271  0.000  0.272
    2  0.000  0.445  0.000  0.445
tot    0.001  0.717  0.000  0.718
    1  0.000  0.156  0.000  0.157
    2  0.000  0.256  0.000  0.256
tot    0.000  0.412  0.000  0.413
    1  0.001  0.158  0.000  0.158
    2  0.000  0.259  0.000  0.259
tot    0.001  0.417  0.000  0.417
    1  0.001  0.156  0.000  0.157
    2  0.000  0.256  0.000  0.256
tot    0.001  0.412  0.000  0.413
 
band     8 # energy   -5.30056245 # occ.  1.00000000
 
ion      s      p      d    tot
    1  0.000  0.228  0.000  0.228
    2  0.000  0.465  0.000  0.465
tot    0.000  0.693  0.000  0.693
    1 -0.000 -0.132  0.000 -0.132
    2 -0.000 -0.268  0.000 -0.268
tot   -0.000 -0.400  0.000 -0.400
    1 -0.000 -0.132  0.000 -0.132
    2 -0.000 -0.269  0.000 -0.269
tot   -0.000 -0.401  0.000 -0.401
    1 -0.000 -0.131  0.000 -0.131
    2 -0.000 -0.267  0.000 -0.267
tot   -0.000 -0.399  0.000 -0.399
 
band     9 # energy   -4.72824791 # occ.  1.00000000
 
ion      s      p      d    tot
    1  0.081  0.239  0.000  0.320
    2  0.026  0.426  0.000  0.453
tot    0.107  0.666  0.000  0.773
    1  0.047  0.139  0.000  0.186
    2  0.015  0.248  0.000  0.263
tot    0.062  0.387  0.000  0.449
    1  0.046  0.136  0.000  0.182
    2  0.015  0.242  0.000  0.257
tot    0.061  0.378  0.000  0.438
    1  0.047  0.139  0.000  0.187
    2  0.015  0.249  0.000  0.264
tot    0.063  0.388  0.000  0.451
 
band    10 # energy   -4.25571804 # occ.  1.00000000
 
ion      s      p      d    tot
    1  0.091  0.226  0.000  0.318
    2  0.025  0.422  0.000  0.448
tot    0.117  0.649  0.000  0.765
    1 -0.053 -0.132  0.000 -0.185
    2 -0.015 -0.245  0.000 -0.259
tot   -0.068 -0.377  0.000 -0.444
    1 -0.052 -0.128  0.000 -0.180
    2 -0.014 -0.241  0.000 -0.255
tot   -0.066 -0.369  0.000 -0.435
    1 -0.053 -0.132  0.000 -0.186
    2 -0.015 -0.246  0.000 -0.261
tot   -0.068 -0.378  0.000 -0.446
 
band    11 # energy    1.30439285 # occ.  1.00000000
 
ion      s      p      d    tot
    1  0.002  0.397  0.000  0.398
    2  0.000  0.323  0.000  0.323
tot    0.002  0.720  0.000  0.721
    1  0.001  0.229  0.000  0.230
    2  0.000  0.187  0.000  0.187
tot    0.001  0.416  0.000  0.416
    1  0.001  0.229  0.000  0.230
    2  0.000  0.186  0.000  0.186
tot    0.001  0.415  0.000  0.416
    1  0.001  0.229  0.000  0.230
    2  0.000  0.186  0.000  0.186
tot    0.001  0.415  0.000  0.416
 
band    12 # energy    2.34754471 # occ.  0.00000000
 
ion      s      p      d    tot
    1  0.033  0.457  0.000  0.490
    2  0.009  0.284  0.000  0.294
tot    0.042  0.741  0.000  0.784
    1  0.019  0.263  0.000  0.282
    2  0.005  0.163  0.000  0.169
tot    0.024  0.426  0.000  0.451
    1  0.019  0.265  0.000  0.284