Executable      : siesta
Version         : 5.1-MaX-42-gb6955e60a
Architecture    : x86_64
Compiler version: GNU-12.3.0
Compiler flags  : -DSIESTA__METIS -fallow-argument-mismatch -O3 -march=native
Environment variables: 
  SIESTA_PS_PATH: /home/nicpa/codes/sisl-files/static/siesta/PBE_fr_standard_04
Parallelisations: MPI
NetCDF support
NetCDF-4 support
NetCDF-4 MPI-IO support
METIS ordering support
Lua support
Native ELPA support
DFT-D3 support

Runtime information:
* Directory : /home/nicpa/codes/sisl-files/tests/siesta/charges/md_scf
* Running in serial mode (only 1 MPI rank).
>> Start of run:  26-JUL-2024  12:09:06

                           *********************** 
                           *  WELCOME TO SIESTA  * 
                           *********************** 

 NOTE: Siesta V5 introduces some new defaults for basis-set generation
 NOTE: which might lead to slightly different numerical results.
 NOTE: Please see the manual for full details and compatibility measures.


reinit: Reading from file ../charge_md_scf.fdf

reinit: -----------------------------------------------------------------------
reinit: System Name: 
reinit: -----------------------------------------------------------------------
reinit: System Label: siesta
reinit: -----------------------------------------------------------------------

initatom: Reading input for the pseudopotentials and atomic orbitals ----------
Species number:   1 Atomic number:    6 Label: C

Ground state valence configuration (from tables):   2s02  2p02  3d00  4f00

---- Processing specs for species: C
Reading pseudopotential information in PSML from:
  /home/nicpa/codes/sisl-files/static/siesta/PBE_fr_standard_04/C.psml
PSML file version: 1.1
Using libxc ids:  101 130
GGA--PBE XC_GGA_X_PBE--XC_GGA_C_PBE pb
PSML uuid: 87620340-470b-11e8-5ed8-8e87ed7edbb4

---- Pseudopotential check for C 

Pseudopotential generated from a fully relativistic atomic calculation
There are spin-orbit semi-local pseudopotentials available

Pseudized shells:
2s( 2.00) rc: 1.20
2p( 2.00) rc: 1.26
Valence configuration for ps generation: 2s:2p: Total charge:   4.000000
For C, standard SIESTA heuristics set lmxkb to 3
 (one more than the basis l, including polarization orbitals).
Use PS.lmax or PS.KBprojectors blocks to override.
C pseudopotential only contains V_ls up to l=1 -- lmxkb reset.

<basis_specs>
===============================================================================
C                    Z=   6    Mass=  12.011        Charge= 0.17977+309
Lmxo=2 Lmxkb= 1    BasisType=split      Semic=F
L=0  Nsemic=0  Cnfigmx=2
          i=1  nzeta=2  polorb=0  (2s)
            splnorm:   0.15000    
               vcte:    40.000    
               rinn:  -0.90000    
               qcoe:    0.0000    
               qyuk:    0.0000    
               qwid:   0.10000E-01
                rcs:    0.0000      0.0000    
            lambdas:    1.0000      1.0000    
L=1  Nsemic=0  Cnfigmx=2
          i=1  nzeta=2  polorb=1  (2p)  (to be polarized perturbatively)
            splnorm:   0.15000    
               vcte:    40.000    
               rinn:  -0.90000    
               qcoe:    0.0000    
               qyuk:    0.0000    
               qwid:   0.10000E-01
                rcs:    0.0000      0.0000    
            lambdas:    1.0000      1.0000    
L=2  Nsemic=0  Cnfigmx=3
          i=1  nzeta=0  polorb=0  (3d)  (perturbative polarization orbital) (from 2p)
-------------------------------------------------------------------------------
L=0  Nkbl=1  erefs: 0.17977+309
L=1  Nkbl=1  erefs: 0.17977+309
===============================================================================
</basis_specs>

Using PAO.SplitTailNorm
atom: Called for C                     (Z =   6)
NOTE: C pseudopotential has channels up to l= 1
NOTE: PAOs with higher l will be generated with V_local
Maximum radius (at nrval) set to   50.00000 8518

read_vps: Pseudopotential generation method:
read_vps: ONCVPSP-3.Hamann's oncvpsp                        
Valence charge in pseudo generation:    4.00000

read_vps: Pseudopotential includes a core correction:
read_vps: Pseudo-core for xc-correction

xc_check: Exchange-correlation functional:
xc_check: Ceperley-Alder
xc_check: WARNING: Pseudopotential generated with GGA PBE functional
Got Vlocal (oncv-fit) from psml data
Choosing vlocal chloc cutoff:  3.131907
qtot up to nchloc:    4.00001913
atom: Maximum radius for chlocal:    3.13191
atom: Maximum radius for r*vlocal+2*Zval:    3.13191
Reading KB projs from C psml data
Using (derived) scalar-relativistic projectors in PSML file

PSML: Kleinman-Bylander projectors: 
   l= 0   rc=  1.219773   Ekb=  0.771050
   l= 0   rc=  1.219773   Ekb= 12.962866
   l= 1   rc=  1.278952   Ekb= -8.399849
   l= 1   rc=  1.278952   Ekb= -1.755000

PSML: Total number of  Kleinman-Bylander projectors:   8
atom: -------------------------------------------------------------------------

atom: SANKEY-TYPE ORBITALS:
atom: Selected multiple-zeta basis: split     

SPLIT: Orbitals with angular momentum L= 0

SPLIT: Basis orbitals for state 2s

SPLIT: PAO cut-off radius determined from an
SPLIT: energy shift=  0.010000 Ry
Split based on tail norm

   izeta = 1
                 lambda =    1.000000
                     rc =    4.511437
                 energy =   -0.989120
                kinetic =    0.946579
    potential(screened) =   -1.935699
       potential(ionic) =   -5.498314

   izeta = 2
                 rmatch =    3.075858
              splitnorm =    0.150000
                 energy =   -0.700820
                kinetic =    1.771753
    potential(screened) =   -2.472573
       potential(ionic) =   -6.339178

SPLIT: Orbitals with angular momentum L= 1

SPLIT: Basis orbitals for state 2p

SPLIT: PAO cut-off radius determined from an
SPLIT: energy shift=  0.010000 Ry
Split based on tail norm

   izeta = 1
                 lambda =    1.000000
                     rc =    5.490449
                 energy =   -0.369555
                kinetic =    2.447706
    potential(screened) =   -2.817262
       potential(ionic) =   -6.234860

   izeta = 2
                 rmatch =    3.744030
              splitnorm =    0.150000
                 energy =   -0.241893
                kinetic =    3.581585
    potential(screened) =   -3.823478
       potential(ionic) =   -7.591537
*Note: V_local used for l= 2

** Using vlocal for PAOs with L= 2

POLgen: Perturbative polarization orbital with L=  2

POLgen: Polarization orbital for state 2p
*Note: V_local used for lpol= 2

** Using vlocal for PAOs with L= 2
Split based on tail norm

   izeta = 1
                     rc =    5.490449
                 energy =    1.132178
                kinetic =    2.236568
    potential(screened) =   -1.104389
       potential(ionic) =   -3.924652
atom: Total number of Sankey-type orbitals: 13

atm_pop: Valence configuration (for local Pseudopot. screening):
 2s( 2.00)                                                            
 2p( 2.00)                                                            
 3d( 0.00)                                                            
Vna: chval, zval:    4.00000   4.00000

Vna:  Cut-off radius for the neutral-atom potential:   5.490449
comcore: Pseudo-core radius Rcore=  1.671741

atom: _________________________________________________________________________

prinput: Basis input 

PAO.BasisType split     

%block ChemicalSpeciesLabel
    1    6 C                       # Species index, atomic number, species label
%endblock ChemicalSpeciesLabel

%block PAO.Basis                 # Define Basis set
# WARNING: This information might be incomplete!
C                     2                    # Species label, number of l-shells
 n=2   0   2                         # n, l, Nzeta 
   4.511      3.076   
   1.000      1.000   
 n=2   1   2 P   1                   # n, l, Nzeta, Polarization, NzetaPol
   5.490      3.744   
   1.000      1.000   
%endblock PAO.Basis

prinput: ----------------------------------------------------------------------

Dumping basis to NetCDF file C.ion.nc
coor:   Atomic-coordinates input format  =     Cartesian coordinates
coor:                                          (in Angstroms)

siesta: Atomic coordinates (Bohr) and species
siesta:      0.00000   0.00000   0.00000  1        1
siesta:      2.60782   0.00000   0.00000  1        2

siesta: System type = slab      

initatomlists: Number of atoms, orbitals, and projectors:      2    26    16

siesta: ******************** Simulation parameters ****************************
siesta:
siesta: The following are some of the parameters of the simulation.
siesta: A complete list of the parameters used, including default values,
siesta: can be found in file out.fdf
siesta:
redata: Spin configuration                          = none
redata: Number of spin components                   = 1
redata: Time-Reversal Symmetry                      = T
redata: Spin spiral                                 = F
redata: Long output                                 =   F
redata: Number of Atomic Species                    =        1
redata: Charge density info will appear in .RHO file
redata: Write Mulliken Pop.                         = Atomic and Orbital charges
redata: Matel table size (NRTAB)                    =     1024
redata: Mesh Cutoff                                 =   300.0000 Ry
redata: Net charge of the system                    =     0.0000 |e|
redata: Min. number of SCF Iter                     =        0
redata: Max. number of SCF Iter                     =     1000
redata: SCF convergence failure will abort job
redata: SCF mix quantity                            = Hamiltonian
redata: Mix DM or H after convergence               =   F
redata: Recompute H after scf cycle                 =   F
redata: Mix DM in first SCF step                    =   T
redata: Write Pulay info on disk                    =   F
redata: New DM Occupancy tolerance                  = 0.000000000001
redata: No kicks to SCF
redata: DM Mixing Weight for Kicks                  =     0.5000
redata: Require Harris convergence for SCF          =   F
redata: Harris energy tolerance for SCF             =     0.000100 eV
redata: Require DM convergence for SCF              =   T
redata: DM tolerance for SCF                        =     0.000100
redata: Require EDM convergence for SCF             =   F
redata: EDM tolerance for SCF                       =     0.001000 eV
redata: Require H convergence for SCF               =   T
redata: Hamiltonian tolerance for SCF               =     0.001000 eV
redata: Require (free) Energy convergence for SCF   =   F
redata: (free) Energy tolerance for SCF             =     0.000100 eV
redata: Using DFT-D3 dispersion                     =   F
redata: Using Saved Data (generic)                  =   F
redata: Use continuation files for DM               =   T
redata: Neglect nonoverlap interactions             =   F
redata: Method of Calculation                       = Diagonalization
redata: Electronic Temperature                      =   299.9863 K
redata: Fix the spin of the system                  =   F
redata: Max. number of TDED Iter                    =        1
redata: Number of TDED substeps                     =        3
redata: Dynamics option                             = CG coord. optimization
redata: Variable cell                               =   F
redata: Use continuation files for CG               =   F
redata: Max atomic displ per move                   =     0.1058 Ang
redata: Maximum number of optimization moves        =        3
redata: Force tolerance                             =     0.0400 eV/Ang
mix.SCF: Pulay mixing                            = Pulay
mix.SCF:    Variant                              = stable
mix.SCF:    History steps                        = 2
mix.SCF:    Linear mixing weight                 =     0.250000
mix.SCF:    Mixing weight                        =     0.250000
mix.SCF:    SVD condition                        = 0.1000E-07
redata: Save all siesta data in one NC              =   F
redata: ***********************************************************************

%block SCF.Mixers
  Pulay
%endblock SCF.Mixers

%block SCF.Mixer.Pulay
  # Mixing method
  method pulay
  variant stable

  # Mixing options
  weight 0.2500
  weight.linear 0.2500
  history 2
%endblock SCF.Mixer.Pulay

DM_history_depth set to one: no extrapolation allowed by default for geometry relaxation
Size of DM history Fstack: 1
Total number of electrons:     8.000000
Total ionic charge:     8.000000

* ProcessorY, Blocksize:    1  27


* Orbital distribution balance (max,min):    26    26


siesta: k-grid: Number of k-points = 1
siesta: k-point is Gamma-only

diag: Algorithm                                     = D&C
diag: Parallel over k                               =   F
diag: Use parallel 2D distribution                  =   F
diag: Parallel block-size                           = 27
diag: Parallel distribution                         =     1 x     1
diag: Used triangular part                          = Lower
diag: Absolute tolerance                            =  0.100E-15
diag: Orthogonalization factor                      =  0.100E-05
diag: Memory factor                                 =  1.0000


ts: **************************************************************
ts: Save H and S matrices                           =    F
ts: Save DM and EDM matrices                        =    F
ts: Only save the overlap matrix S                  =    F
ts: **************************************************************

************************ Begin: TS CHECKS AND WARNINGS ************************
************************ End: TS CHECKS AND WARNINGS **************************


                     ====================================
                        Begin CG opt. move =      0
                     ====================================

outcell: Unit cell vectors (Ang):
        2.130000    1.229756    0.000000
        2.130000   -1.229756    0.000000
        0.000000    0.000000   14.200000

outcell: Cell vector modules (Ang)   :    2.459512    2.459512   14.200000
outcell: Cell angles (23,13,12) (deg):     90.0000     90.0000     60.0000
outcell: Cell volume (Ang**3)        :     74.3904
Gamma-point calculation with interaction between periodic images
Some features might not work optimally:
e.g. DM initialization from atomic data
<dSpData1D:S at geom step 0
  <sparsity:sparsity for geom step 0
    nrows_g=26 nrows=26 sparsity=1.0000 nnzs=676, refcount: 7>
  <dData1D:(new from dSpData1D) n=676, refcount: 1>
refcount: 1>
new_DM -- step:     1
Initializing Density Matrix...

Attempting to read DM from file... Failed...
DM filled with atomic data:
<dSpData2D:DM initialized from atoms
  <sparsity:sparsity for geom step 0
    nrows_g=26 nrows=26 sparsity=1.0000 nnzs=676, refcount: 8>
  <dData2D:DM n=676 m=1, refcount: 1>
refcount: 1>
No. of atoms with KB's overlaping orbs in proc 0. Max # of overlaps:       2     151

InitMesh: MESH = 24 x 24 x 150 = 86400
InitMesh: Mesh cutoff (required, used) =   300.000   308.395 Ry
New grid distribution [1]: sub = 2

Hirshfeld Atomic Populations:
Atom #     dQatom  Atom pop  Species
     1   -0.00000   4.00000  C
     2    0.00001   3.99999  C

Voronoi Atomic Populations:
Atom #     dQatom  Atom pop  Species
     1   -0.00130   4.00130  C
     2    0.00131   3.99869  C
 

stepf: Fermi-Dirac step function

Hirshfeld Atomic Populations:
Atom #     dQatom  Atom pop  Species
     1   -0.00000   4.00000  C
     2    0.00001   3.99999  C

Voronoi Atomic Populations:
Atom #     dQatom  Atom pop  Species
     1   -0.03285   4.03285  C
     2    0.03286   3.96714  C
 

siesta: Program's energy decomposition (eV):
siesta: Ebs     =       -94.951417
siesta: Eions   =       564.310478
siesta: Ena     =       150.800224
siesta: Ekin    =       256.166833
siesta: Enl     =       -26.666749
siesta: Eso     =         0.000000
siesta: Edftu   =         0.000000
siesta: DEna    =       -19.369946
siesta: DUscf   =         2.409937
siesta: DUext   =         0.000000
siesta: Ex      =      -103.922867
siesta: Ec      =       -13.936644
siesta: Exc     =      -117.859511
siesta: EbV     =         0.000000
siesta: eta*DQ  =         0.000000
siesta: Emadel  =         0.000000
siesta: Emeta   =         0.000000
siesta: Emolmec =         0.000000
siesta: Ekinion =         0.000000
siesta: Eharris =      -311.180681
siesta: Etot    =      -318.829688
siesta: FreeEng =      -318.829688

        iscf     Eharris(eV)        E_KS(eV)     FreeEng(eV)     dDmax    Ef(eV) dHmax(eV)
   scf:    1     -311.180681     -318.829688     -318.829688  1.276437 -2.939391  1.725271
timer: Routine,Calls,Time,% = IterSCF        1       0.214  25.65

Hirshfeld Atomic Populations:
Atom #     dQatom  Atom pop  Species
     1   -0.00000   4.00000  C
     2    0.00001   3.99999  C

Voronoi Atomic Populations:
Atom #     dQatom  Atom pop  Species
     1   -0.03249   4.03249  C
     2    0.03250   3.96750  C
 
   scf:    2     -318.889561     -318.860260     -318.860260  0.047621 -2.595838  1.099113

Hirshfeld Atomic Populations:
Atom #     dQatom  Atom pop  Species
     1   -0.00000   4.00000  C
     2    0.00001   3.99999  C

Voronoi Atomic Populations:
Atom #     dQatom  Atom pop  Species
     1   -0.03179   4.03179  C
     2    0.03179   3.96821  C
 
   scf:    3     -318.908843     -318.886640     -318.886640  0.088589 -2.031304  0.150634

Hirshfeld Atomic Populations:
Atom #     dQatom  Atom pop  Species
     1   -0.00000   4.00000  C
     2    0.00001   3.99999  C

Voronoi Atomic Populations:
Atom #     dQatom  Atom pop  Species
     1   -0.03174   4.03174  C
     2    0.03175   3.96825  C
 
   scf:    4     -318.887353     -318.886999     -318.886999  0.005916 -2.048590  0.113566

Hirshfeld Atomic Populations:
Atom #     dQatom  Atom pop  Species
     1   -0.00000   4.00000  C
     2    0.00001   3.99999  C

Voronoi Atomic Populations:
Atom #     dQatom  Atom pop  Species
     1   -0.03160   4.03160  C
     2    0.03161   3.96839  C
 
   scf:    5     -318.888147     -318.887592     -318.887592  0.017773 -2.092923  0.013360

Hirshfeld Atomic Populations:
Atom #     dQatom  Atom pop  Species
     1   -0.00000   4.00000  C
     2    0.00001   3.99999  C

Voronoi Atomic Populations:
Atom #     dQatom  Atom pop  Species
     1   -0.03158   4.03158  C
     2    0.03159   3.96841  C
 
   scf:    6     -318.887637     -318.887615     -318.887615  0.002531 -2.095630  0.007106

Hirshfeld Atomic Populations:
Atom #     dQatom  Atom pop  Species
     1   -0.00000   4.00000  C
     2    0.00001   3.99999  C

Voronoi Atomic Populations:
Atom #     dQatom  Atom pop  Species
     1   -0.03157   4.03157  C
     2    0.03157   3.96843  C
 
   scf:    7     -318.887631     -318.887626     -318.887626  0.002169 -2.097519  0.002690

Hirshfeld Atomic Populations:
Atom #     dQatom  Atom pop  Species
     1   -0.00000   4.00000  C
     2    0.00001   3.99999  C

Voronoi Atomic Populations:
Atom #     dQatom  Atom pop  Species
     1   -0.03157   4.03157  C
     2    0.03157   3.96843  C
 
   scf:    8     -318.887626     -318.887626     -318.887626  0.000030 -2.097271  0.002230

Hirshfeld Atomic Populations:
Atom #     dQatom  Atom pop  Species
     1   -0.00000   4.00000  C
     2    0.00001   3.99999  C

Voronoi Atomic Populations:
Atom #     dQatom  Atom pop  Species
     1   -0.03156   4.03156  C
     2    0.03157   3.96843  C
 
   scf:    9     -318.887626     -318.887626     -318.887626  0.000016 -2.096647  0.001050

Hirshfeld Atomic Populations:
Atom #     dQatom  Atom pop  Species
     1   -0.00000   4.00000  C
     2    0.00001   3.99999  C

Voronoi Atomic Populations:
Atom #     dQatom  Atom pop  Species
     1   -0.03157   4.03157  C
     2    0.03157   3.96843  C
 
   scf:   10     -318.887626     -318.887626     -318.887626  0.000057 -2.096517  0.000722

SCF Convergence by DM+H criterion
max |DM_out - DM_in|         :     0.0000569105
max |H_out - H_in|      (eV) :     0.0007216234
SCF cycle converged after 10 iterations

Using DM_out to compute the final energy and forces
No. of atoms with KB's overlaping orbs in proc 0. Max # of overlaps:       2     151

Hirshfeld Atomic Populations:
Atom #     dQatom  Atom pop  Species
     1   -0.00000   4.00000  C
     2    0.00001   3.99999  C

Voronoi Atomic Populations:
Atom #     dQatom  Atom pop  Species
     1   -0.03157   4.03157  C
     2    0.03157   3.96843  C
 

siesta: E_KS(eV) =             -318.8876

siesta: E_KS - E_eggbox =      -318.8876

siesta: Atomic forces (eV/Ang):
----------------------------------------
   Tot   -0.016144    0.000000   -0.000000
----------------------------------------
   Max    5.089703
   Res    2.933885    sqrt( Sum f_i^2 / 3N )
----------------------------------------
   Max    5.089703    constrained

Stress tensor Voigt[x,y,z,yz,xz,xy] (kbar):     -126.53      -57.02        0.04        0.00        0.00       -0.00
(Free)E + p*V (eV/cell)     -316.0475
Target enthalpy (eV/cell)     -318.8876

mulliken: Atomic and Orbital Populations:

Species: C                   
Atom  Qatom  Qorb
               2s      2s      2py     2pz     2px     2py     2pz     2px     
               3Pdxy   3Pdyz   3Pdz2   3Pdxz   3Pdx2-y2
   1  4.001   0.809   0.187   0.703   0.798   0.803   0.238   0.202   0.146
              0.059   0.000   0.005   0.000   0.051
   2  3.999   0.808   0.187   0.705   0.797   0.803   0.236   0.202   0.146
              0.059   0.000   0.005   0.000   0.051

mulliken: Qtot =        8.000

                     ====================================
                        Begin CG opt. move =      1
                     ====================================

outcell: Unit cell vectors (Ang):
        2.130000    1.229756    0.000000
        2.130000   -1.229756    0.000000
        0.000000    0.000000   14.200000

outcell: Cell vector modules (Ang)   :    2.459512    2.459512   14.200000
outcell: Cell angles (23,13,12) (deg):     90.0000     90.0000     60.0000
outcell: Cell volume (Ang**3)        :     74.3904
Gamma-point calculation with interaction between periodic images
Some features might not work optimally:
e.g. DM initialization from atomic data
<dSpData1D:S at geom step 1
  <sparsity:sparsity for geom step 1
    nrows_g=26 nrows=26 sparsity=1.0000 nnzs=676, refcount: 7>
  <dData1D:(new from dSpData1D) n=676, refcount: 1>
refcount: 1>
new_DM -- step:     2
Re-using DM from previous geometries...
Number of DMs in history: 1
 DM extrapolation coefficients: 
1   1.00000
New DM after history re-use:
<dSpData2D:SpM extrapolated using coords
  <sparsity:sparsity for geom step 1
    nrows_g=26 nrows=26 sparsity=1.0000 nnzs=676, refcount: 9>
  <dData2D:(temp array for extrapolation) n=676 m=1, refcount: 1>
refcount: 1>
Note: For starting DM, Qtot, Tr[D*S] =          8.00000000          7.98364924
No. of atoms with KB's overlaping orbs in proc 0. Max # of overlaps:       2     151

InitMesh: MESH = 24 x 24 x 150 = 86400
InitMesh: Mesh cutoff (required, used) =   300.000   308.395 Ry
New grid distribution [1]: sub = 2

Hirshfeld Atomic Populations:
Atom #     dQatom  Atom pop  Species
     1    0.00000   4.00000  C
     2    0.00001   3.99999  C

Voronoi Atomic Populations:
Atom #     dQatom  Atom pop  Species
     1   -0.01860   4.01860  C
     2    0.01860   3.98140  C
 

Hirshfeld Atomic Populations:
Atom #     dQatom  Atom pop  Species
     1    0.00002   3.99998  C
     2   -0.00001   4.00001  C

Voronoi Atomic Populations:
Atom #     dQatom  Atom pop  Species
     1   -0.01303   4.01303  C
     2    0.01303   3.98697  C
 

        iscf     Eharris(eV)        E_KS(eV)     FreeEng(eV)     dDmax    Ef(eV) dHmax(eV)
   scf:    1     -317.515652     -318.287567     -318.287567  0.313671 -2.019680  0.433178

Hirshfeld Atomic Populations:
Atom #     dQatom  Atom pop  Species
     1   -0.00002   4.00002  C
     2    0.00002   3.99998  C

Voronoi Atomic Populations:
Atom #     dQatom  Atom pop  Species
     1   -0.01407   4.01407  C
     2    0.01407   3.98593  C
 
   scf:    2     -318.308431     -318.300353     -318.300353  0.034873 -2.039675  0.120228

Hirshfeld Atomic Populations:
Atom #     dQatom  Atom pop  Species
     1    0.00000   4.00000  C
     2    0.00000   4.00000  C

Voronoi Atomic Populations:
Atom #     dQatom  Atom pop  Species
     1   -0.01383   4.01383  C
     2    0.01383   3.98617  C
 
   scf:    3     -318.302156     -318.301363     -318.301363  0.007302 -2.032795  0.010546

Hirshfeld Atomic Populations:
Atom #     dQatom  Atom pop  Species
     1    0.00000   4.00000  C
     2    0.00000   4.00000  C

Voronoi Atomic Populations:
Atom #     dQatom  Atom pop  Species
     1   -0.01383   4.01383  C
     2    0.01383   3.98617  C
 
   scf:    4     -318.301367     -318.301365     -318.301365  0.000101 -2.031775  0.007563

Hirshfeld Atomic Populations:
Atom #     dQatom  Atom pop  Species
     1    0.00001   3.99999  C
     2   -0.00000   4.00000  C

Voronoi Atomic Populations:
Atom #     dQatom  Atom pop  Species
     1   -0.01382   4.01382  C
     2    0.01383   3.98617  C
 
   scf:    5     -318.301369     -318.301367     -318.301367  0.000257 -2.029317  0.000676

Hirshfeld Atomic Populations:
Atom #     dQatom  Atom pop  Species
     1    0.00001   3.99999  C
     2   -0.00000   4.00000  C

Voronoi Atomic Populations:
Atom #     dQatom  Atom pop  Species
     1   -0.01383   4.01383  C
     2    0.01383   3.98617  C
 
   scf:    6     -318.301367     -318.301367     -318.301367  0.000011 -2.029339  0.000464

SCF Convergence by DM+H criterion
max |DM_out - DM_in|         :     0.0000109819
max |H_out - H_in|      (eV) :     0.0004642577
SCF cycle converged after 6 iterations

Using DM_out to compute the final energy and forces
No. of atoms with KB's overlaping orbs in proc 0. Max # of overlaps:       2     151

Hirshfeld Atomic Populations:
Atom #     dQatom  Atom pop  Species
     1    0.00001   3.99999  C
     2   -0.00000   4.00000  C

Voronoi Atomic Populations:
Atom #     dQatom  Atom pop  Species
     1   -0.01383   4.01383  C
     2    0.01383   3.98617  C
 

siesta: E_KS(eV) =             -318.3014

siesta: Atomic forces (eV/Ang):
----------------------------------------
   Tot    0.019703   -0.000000    0.000000
----------------------------------------
   Max   12.128262
   Res    6.996570    sqrt( Sum f_i^2 / 3N )
----------------------------------------
   Max   12.128262    constrained

Stress tensor Voigt[x,y,z,yz,xz,xy] (kbar):      -13.36     -210.79        0.04        0.00       -0.00       -0.00
(Free)E + p*V (eV/cell)     -314.8328
Target enthalpy (eV/cell)     -318.3014

mulliken: Atomic and Orbital Populations:

Species: C                   
Atom  Qatom  Qorb
               2s      2s      2py     2pz     2px     2py     2pz     2px     
               3Pdxy   3Pdyz   3Pdz2   3Pdxz   3Pdx2-y2
   1  4.000   0.807   0.192   0.885   0.793   0.631   0.071   0.207   0.299
              0.044   0.000   0.004   0.000   0.067
   2  4.000   0.807   0.193   0.883   0.793   0.634   0.073   0.207   0.296
              0.044   0.000   0.004   0.000   0.066

mulliken: Qtot =        8.000

                     ====================================
                        Begin CG opt. move =      2
                     ====================================

outcell: Unit cell vectors (Ang):
        2.130000    1.229756    0.000000
        2.130000   -1.229756    0.000000
        0.000000    0.000000   14.200000

outcell: Cell vector modules (Ang)   :    2.459512    2.459512   14.200000
outcell: Cell angles (23,13,12) (deg):     90.0000     90.0000     60.0000
outcell: Cell volume (Ang**3)        :     74.3904
Gamma-point calculation with interaction between periodic images
Some features might not work optimally:
e.g. DM initialization from atomic data
<dSpData1D:S at geom step 2
  <sparsity:sparsity for geom step 2
    nrows_g=26 nrows=26 sparsity=1.0000 nnzs=676, refcount: 7>
  <dData1D:(new from dSpData1D) n=676, refcount: 1>
refcount: 1>
new_DM -- step:     3
Re-using DM from previous geometries...
Number of DMs in history: 1
 DM extrapolation coefficients: 
1   1.00000
New DM after history re-use:
<dSpData2D:SpM extrapolated using coords
  <sparsity:sparsity for geom step 2
    nrows_g=26 nrows=26 sparsity=1.0000 nnzs=676, refcount: 9>
  <dData2D:(temp array for extrapolation) n=676 m=1, refcount: 1>
refcount: 1>
Note: For starting DM, Qtot, Tr[D*S] =          8.00000000          8.03190305
No. of atoms with KB's overlaping orbs in proc 0. Max # of overlaps:       2     151

InitMesh: MESH = 24 x 24 x 150 = 86400
InitMesh: Mesh cutoff (required, used) =   300.000   308.395 Ry
New grid distribution [1]: sub = 2

Hirshfeld Atomic Populations:
Atom #     dQatom  Atom pop  Species
     1    0.00002   3.99998  C
     2   -0.00002   4.00002  C

Voronoi Atomic Populations:
Atom #     dQatom  Atom pop  Species
     1    0.00250   3.99750  C
     2   -0.00250   4.00250  C
 

Hirshfeld Atomic Populations:
Atom #     dQatom  Atom pop  Species
     1   -0.00003   4.00003  C
     2    0.00003   3.99997  C

Voronoi Atomic Populations:
Atom #     dQatom  Atom pop  Species
     1   -0.00529   4.00529  C
     2    0.00529   3.99471  C
 

        iscf     Eharris(eV)        E_KS(eV)     FreeEng(eV)     dDmax    Ef(eV) dHmax(eV)
   scf:    1     -319.213292     -318.980157     -318.980157  0.232258 -2.047424  0.316001

Hirshfeld Atomic Populations:
Atom #     dQatom  Atom pop  Species
     1    0.00006   3.99994  C
     2   -0.00006   4.00006  C

Voronoi Atomic Populations:
Atom #     dQatom  Atom pop  Species
     1   -0.00393   4.00393  C
     2    0.00393   3.99607  C
 
   scf:    2     -318.990293     -318.986417     -318.986417  0.019474 -2.133861  0.089411

Hirshfeld Atomic Populations:
Atom #     dQatom  Atom pop  Species
     1    0.00002   3.99998  C
     2   -0.00001   4.00001  C

Voronoi Atomic Populations:
Atom #     dQatom  Atom pop  Species
     1   -0.00427   4.00427  C
     2    0.00427   3.99573  C
 
   scf:    3     -318.987322     -318.986927     -318.986927  0.004257 -2.111406  0.011323

Hirshfeld Atomic Populations:
Atom #     dQatom  Atom pop  Species
     1    0.00001   3.99999  C
     2   -0.00000   4.00000  C

Voronoi Atomic Populations:
Atom #     dQatom  Atom pop  Species
     1   -0.00428   4.00428  C
     2    0.00429   3.99571  C
 
   scf:    4     -318.986929     -318.986928     -318.986928  0.000104 -2.109833  0.007947

Hirshfeld Atomic Populations:
Atom #     dQatom  Atom pop  Species
     1   -0.00000   4.00000  C
     2    0.00001   3.99999  C

Voronoi Atomic Populations:
Atom #     dQatom  Atom pop  Species
     1   -0.00429   4.00429  C
     2    0.00429   3.99571  C
 
   scf:    5     -318.986931     -318.986929     -318.986929  0.000216 -2.106610  0.001371

Hirshfeld Atomic Populations:
Atom #     dQatom  Atom pop  Species
     1    0.00000   4.00000  C
     2    0.00000   4.00000  C

Voronoi Atomic Populations:
Atom #     dQatom  Atom pop  Species
     1   -0.00428   4.00428  C
     2    0.00429   3.99571  C
 
   scf:    6     -318.986930     -318.986930     -318.986930  0.000026 -2.106599  0.000968

SCF Convergence by DM+H criterion
max |DM_out - DM_in|         :     0.0000261595
max |H_out - H_in|      (eV) :     0.0009680244
SCF cycle converged after 6 iterations

Using DM_out to compute the final energy and forces
No. of atoms with KB's overlaping orbs in proc 0. Max # of overlaps:       2     151

Hirshfeld Atomic Populations:
Atom #     dQatom  Atom pop  Species
     1    0.00000   4.00000  C
     2    0.00000   4.00000  C

Voronoi Atomic Populations:
Atom #     dQatom  Atom pop  Species
     1   -0.00428   4.00428  C
     2    0.00429   3.99571  C
 

siesta: E_KS(eV) =             -318.9869

siesta: Atomic forces (eV/Ang):
----------------------------------------
   Tot    0.010504    0.000000    0.000000
----------------------------------------
   Max    0.519609
   Res    0.296980    sqrt( Sum f_i^2 / 3N )
----------------------------------------
   Max    0.519609    constrained

Stress tensor Voigt[x,y,z,yz,xz,xy] (kbar):      -86.02      -92.59        0.03        0.00       -0.00        0.00
(Free)E + p*V (eV/cell)     -316.2231
Target enthalpy (eV/cell)     -318.9869

mulliken: Atomic and Orbital Populations:

Species: C                   
Atom  Qatom  Qorb
               2s      2s      2py     2pz     2px     2py     2pz     2px     
               3Pdxy   3Pdyz   3Pdz2   3Pdxz   3Pdx2-y2
   1  4.000   0.809   0.186   0.756   0.798   0.747   0.190   0.202   0.197
              0.055   0.000   0.005   0.000   0.055
   2  4.000   0.809   0.186   0.757   0.798   0.746   0.188   0.202   0.199
              0.055   0.000   0.005   0.000   0.055

mulliken: Qtot =        8.000

cgvc: Finished line minimization    1.  Mean atomic displacement =    0.0418

                     ====================================
                        Begin CG opt. move =      3
                     ====================================

outcell: Unit cell vectors (Ang):
        2.130000    1.229756    0.000000
        2.130000   -1.229756    0.000000
        0.000000    0.000000   14.200000

outcell: Cell vector modules (Ang)   :    2.459512    2.459512   14.200000
outcell: Cell angles (23,13,12) (deg):     90.0000     90.0000     60.0000
outcell: Cell volume (Ang**3)        :     74.3904
Gamma-point calculation with interaction between periodic images
Some features might not work optimally:
e.g. DM initialization from atomic data
<dSpData1D:S at geom step 3
  <sparsity:sparsity for geom step 3
    nrows_g=26 nrows=26 sparsity=1.0000 nnzs=676, refcount: 7>
  <dData1D:(new from dSpData1D) n=676, refcount: 1>
refcount: 1>
new_DM -- step:     4
Re-using DM from previous geometries...
Number of DMs in history: 1
 DM extrapolation coefficients: 
1   1.00000
New DM after history re-use:
<dSpData2D:SpM extrapolated using coords
  <sparsity:sparsity for geom step 3
    nrows_g=26 nrows=26 sparsity=1.0000 nnzs=676, refcount: 9>
  <dData2D:(temp array for extrapolation) n=676 m=1, refcount: 1>
refcount: 1>
No. of atoms with KB's overlaping orbs in proc 0. Max # of overlaps:       2     151

InitMesh: MESH = 24 x 24 x 150 = 86400
InitMesh: Mesh cutoff (required, used) =   300.000   308.395 Ry
New grid distribution [1]: sub = 2

Hirshfeld Atomic Populations:
Atom #     dQatom  Atom pop  Species
     1    0.00001   3.99999  C
     2   -0.00001   4.00001  C

Voronoi Atomic Populations:
Atom #     dQatom  Atom pop  Species
     1   -0.02770   4.02770  C
     2    0.02770   3.97230  C
 

Hirshfeld Atomic Populations:
Atom #     dQatom  Atom pop  Species
     1    0.00001   3.99999  C
     2   -0.00001   4.00001  C

Voronoi Atomic Populations:
Atom #     dQatom  Atom pop  Species
     1   -0.02546   4.02546  C
     2    0.02546   3.97454  C
 

        iscf     Eharris(eV)        E_KS(eV)     FreeEng(eV)     dDmax    Ef(eV) dHmax(eV)
   scf:    1     -318.731854     -318.848846     -318.848846  0.093917 -2.096055  0.133229

Hirshfeld Atomic Populations:
Atom #     dQatom  Atom pop  Species
     1    0.00001   3.99999  C
     2   -0.00000   4.00000  C

Voronoi Atomic Populations:
Atom #     dQatom  Atom pop  Species
     1   -0.02586   4.02586  C
     2    0.02586   3.97414  C
 
   scf:    2     -318.850682     -318.849974     -318.849974  0.008435 -2.091087  0.037137

Hirshfeld Atomic Populations:
Atom #     dQatom  Atom pop  Species
     1    0.00001   3.99999  C
     2   -0.00001   4.00001  C

Voronoi Atomic Populations:
Atom #     dQatom  Atom pop  Species
     1   -0.02577   4.02577  C
     2    0.02578   3.97422  C
 
   scf:    3     -318.850139     -318.850068     -318.850068  0.001790 -2.092009  0.001904

Hirshfeld Atomic Populations:
Atom #     dQatom  Atom pop  Species
     1    0.00001   3.99999  C
     2   -0.00001   4.00001  C

Voronoi Atomic Populations:
Atom #     dQatom  Atom pop  Species
     1   -0.02577   4.02577  C
     2    0.02578   3.97422  C
 
   scf:    4     -318.850068     -318.850068     -318.850068  0.000036 -2.092000  0.001417

Hirshfeld Atomic Populations:
Atom #     dQatom  Atom pop  Species
     1    0.00001   3.99999  C
     2   -0.00001   4.00001  C

Voronoi Atomic Populations:
Atom #     dQatom  Atom pop  Species
     1   -0.02577   4.02577  C
     2    0.02578   3.97422  C
 
   scf:    5     -318.850069     -318.850068     -318.850068  0.000105 -2.091974  0.000038

Hirshfeld Atomic Populations:
Atom #     dQatom  Atom pop  Species
     1    0.00001   3.99999  C
     2   -0.00001   4.00001  C

Voronoi Atomic Populations:
Atom #     dQatom  Atom pop  Species
     1   -0.02577   4.02577  C
     2    0.02578   3.97422  C
 
   scf:    6     -318.850068     -318.850068     -318.850068  0.000001 -2.091973  0.000026

SCF Convergence by DM+H criterion
max |DM_out - DM_in|         :     0.0000011434
max |H_out - H_in|      (eV) :     0.0000257913
SCF cycle converged after 6 iterations

Using DM_out to compute the final energy and forces
No. of atoms with KB's overlaping orbs in proc 0. Max # of overlaps:       2     151

Hirshfeld Atomic Populations:
Atom #     dQatom  Atom pop  Species
     1    0.00001   3.99999  C
     2   -0.00001   4.00001  C

Voronoi Atomic Populations:
Atom #     dQatom  Atom pop  Species
     1   -0.02577   4.02577  C
     2    0.02578   3.97422  C
 

siesta: E_KS(eV) =             -318.8501

siesta: Atomic forces (eV/Ang):
----------------------------------------
   Tot   -0.015980   -0.000000    0.000000
----------------------------------------
   Max    5.639783
   Res    3.251521    sqrt( Sum f_i^2 / 3N )
----------------------------------------
   Max    5.639783    constrained

Stress tensor Voigt[x,y,z,yz,xz,xy] (kbar):      -51.77     -135.25        0.04       -0.00        0.00       -0.00
(Free)E + p*V (eV/cell)     -315.9563
Target enthalpy (eV/cell)     -318.8501

mulliken: Atomic and Orbital Populations:

Species: C                   
Atom  Qatom  Qorb
               2s      2s      2py     2pz     2px     2py     2pz     2px     
               3Pdxy   3Pdyz   3Pdz2   3Pdxz   3Pdx2-y2
   1  4.000   0.808   0.187   0.810   0.797   0.698   0.140   0.203   0.242
              0.050   0.000   0.005   0.000   0.060
   2  4.000   0.809   0.187   0.810   0.797   0.696   0.140   0.203   0.243
              0.050   0.000   0.005   0.000   0.060

mulliken: Qtot =        8.000

outcoor: Final (unrelaxed) atomic coordinates (Ang):        
   -0.04233705    0.00000000   -0.00000000   1       1  C
    1.42594956    0.00000000    0.00000000   1       2  C

siesta: Program's energy decomposition (eV):
siesta: Ebs     =       -99.346817
siesta: Eions   =       564.310478
siesta: Ena     =       150.802228
siesta: Ekin    =       253.249861
siesta: Enl     =       -26.241412
siesta: Eso     =         0.000000
siesta: Edftu   =         0.000000
siesta: DEna    =       -17.262566
siesta: DUscf   =         2.163586
siesta: DUext   =         0.000000
siesta: Ex      =      -103.346919
siesta: Ec      =       -13.904370
siesta: Exc     =      -117.251289
siesta: EbV     =         0.000000
siesta: eta*DQ  =         0.000000
siesta: Emadel  =         0.000000
siesta: Emeta   =         0.000000
siesta: Emolmec =         0.000000
siesta: Ekinion =         0.000000
siesta: Eharris =      -318.850068
siesta: Etot    =      -318.850068
siesta: FreeEng =      -318.850068

siesta: Final energy (eV):
siesta:  Band Struct. =     -99.346817
siesta:       Kinetic =     253.249861
siesta:       Hartree =    1023.896280
siesta:         Edftu =       0.000000
siesta:       Eso     =       0.000000
siesta:    Ext. field =       0.000000
siesta:         Exch. =    -103.346919
siesta:         Corr. =     -13.904370
siesta:     Bulk bias =       0.000000
siesta:   Exch.-corr. =    -117.251289
siesta:  Ion-electron =   -2270.834404
siesta:       Ion-ion =     792.089483
siesta:       Ekinion =       0.000000
siesta: D3 dispersion =       0.000000
siesta:         Total =    -318.850068
siesta:         Fermi =      -2.091973

siesta: Atomic forces (eV/Ang):
siesta:      1    5.623804   -0.000000   -0.000000
siesta:      2   -5.639783    0.000000    0.000000
siesta: ----------------------------------------
siesta:    Tot   -0.015980   -0.000000    0.000000

siesta: Stress tensor (static) (eV/Ang**3):
siesta:    -0.032312   -0.000000    0.000000
siesta:    -0.000000   -0.084414    0.000000
siesta:     0.000000   -0.000000    0.000026

siesta: Cell volume =         74.390404 Ang**3

siesta: Pressure (static):
siesta:                Solid            Molecule  Units
siesta:           0.00042367          0.00082723  Ry/Bohr**3
siesta:           0.03889973          0.07595239  eV/Ang**3
siesta:          62.32423910        121.68914541  kBar
(Free)E+ p_basis*V_orbitals  =        -318.068373
(Free)Eharris+ p_basis*V_orbitals  =        -318.068373

siesta: Electric dipole (a.u.)  =   -0.000000   -0.000000    0.000000
siesta: Electric dipole (Debye) =   -0.000000   -0.000000    0.000000

cite: Please see "siesta.bib" for an exhaustive BiBTeX file.
cite: Please clearly indicate Siesta version in published work: 5.1-MaX-42-gb6955e60a
cite: This calculation has made use of the following articles
cite: which are encouraged to be cited in a published work.
        Primary SIESTA paper
          DOI: www.doi.org/10.1088/0953-8984/14/11/302


timer: Elapsed wall time (sec) =      11.344
timer: CPU execution times (sec):

Routine            Calls   Time/call    Tot.time        %
siesta                 1      11.342      11.342   100.00
Setup                  1       0.062       0.062     0.55
bands                  1       0.000       0.000     0.00
KSV_init               1       0.000       0.000     0.00
IterGeom               4       2.820      11.280    99.45
geom_init              4       0.394       1.577    13.90
state_init             4       0.019       0.077     0.68
hsparse                4       0.000       0.002     0.02
overlap                4       0.018       0.074     0.65
Setup_H0               4       0.165       0.660     5.82
naefs                  8       0.000       0.000     0.00
MolMec                 8       0.000       0.000     0.00
kinefsm                8       0.010       0.083     0.74
nlefsm                 8       0.013       0.103     0.91
DHSCF_Init             4       0.125       0.502     4.42
DHSCF1                 4       0.012       0.048     0.43
INITMESH               4       0.000       0.000     0.00
DHSCF2                 4       0.113       0.453     4.00
REMESH                 4       0.006       0.025     0.22
REORD                204       0.000       0.017     0.15
PHION                  4       0.090       0.361     3.18
COMM_BSC             228       0.000       0.015     0.14
POISON                40       0.007       0.286     2.52
fft                   80       0.003       0.256     2.26
setup_H               32       0.212       6.797    59.93
DHSCF                 36       0.291      10.488    92.47
DHSCF3                36       0.212       7.634    67.31
rhoofd                36       0.054       1.939    17.10
partial-charges       36       0.108       3.874    34.15
XC                    36       0.004       0.128     1.13
GXC-CellXC            36       0.003       0.121     1.07
gridxc@cellXC         36       0.003       0.121     1.06
vmat                  36       0.039       1.393    12.28
IterSCF               28       0.213       5.968    52.62
compute_dm            28       0.000       0.009     0.08
diagon                28       0.000       0.009     0.08
r-eigvec              28       0.000       0.008     0.07
r-buildHS             28       0.000       0.000     0.00
rdiag                 28       0.000       0.008     0.07
rdiag1                28       0.000       0.004     0.04
rdiag2                28       0.000       0.000     0.00
rdiag3                28       0.000       0.002     0.02
rdiag4                28       0.000       0.000     0.00
r-buildD              28       0.000       0.000     0.00
MIXER                 24       0.000       0.000     0.00
PostSCF                4       0.933       3.733    32.92
DHSCF4                 4       0.714       2.854    25.17
dfscf                  4       0.702       2.808    24.76
overfsm                4       0.003       0.011     0.10
writeHSX               4       0.000       0.000     0.00
state_analysis         4       0.000       0.000     0.00
siesta_move            4       0.000       0.000     0.00
Analysis               1       0.000       0.000     0.00
optical                1       0.000       0.000     0.00
  

>> End of run:  26-JUL-2024  12:09:17
Job completed
