<preamble>

<basis_specs>
===============================================================================
Bi                   Z=  83    Mass=  208.98        Charge= 0.17977+309
Lmxo=2 Lmxkb= 2    BasisType=split      Semic=T
L=0  Nsemic=0  Cnfigmx=6
          i=1  nzeta=1  polorb=0  (6s)
            splnorm:   0.15000    
               vcte:    40.000    
               rinn:    4.3772    
               qcoe:    0.0000    
               qyuk:    0.0000    
               qwid:   0.10000E-01
                rcs:    4.8587    
            lambdas:    1.0000    
L=1  Nsemic=0  Cnfigmx=6
          i=1  nzeta=1  polorb=0  (6p)  (to be polarized non-perturbatively)
            splnorm:   0.15000    
               vcte:    40.000    
               rinn:    5.7656    
               qcoe:    0.0000    
               qyuk:    0.0000    
               qwid:   0.10000E-01
                rcs:    6.4062    
            lambdas:    1.0000    
L=2  Nsemic=1  Cnfigmx=6
          i=1  nzeta=1  polorb=0  (5d)  (semicore shell)
            splnorm:   0.15000    
               vcte:    40.000    
               rinn:    2.9341    
               qcoe:    0.0000    
               qyuk:    0.0000    
               qwid:   0.10000E-01
                rcs:    3.2601    
            lambdas:    1.0000    
          i=2  nzeta=1  polorb=0  (6d)  (non-perturbative polarization shell)
            splnorm:   0.15000    
               vcte:    40.000    
               rinn:    5.7714    
               qcoe:    0.0000    
               qyuk:    0.0000    
               qwid:   0.10000E-01
                rcs:    6.4062    
            lambdas:    1.0000    
-------------------------------------------------------------------------------
L=0  Nkbl=1  erefs: 0.17977+309
L=1  Nkbl=1  erefs: 0.17977+309
L=2  Nkbl=2  erefs: 0.17977+309 0.17977+309
===============================================================================
</basis_specs>

<pseudopotential_header>
 Bi pb rel pcec
 ONCVPSP-3.2018-04-23Hamann's oncvpsp                        
 6s 2.00r r= 2.43/6p 3.00r r= 2.52/5d10.00r r= 2.10/                    5d:6s:6p:
</pseudopotential_header>
</preamble>
Bi                            # Symbol
Bi                            # Label
   83                         # Atomic number
     15.0000000000                             # Valence charge
     208.980000000        # Mass 
     179.502760553        # Self energy 
   2   4                      # Lmax for basis, no. of nl orbitals 
   2  10 T                    # Lmax for projectors, no. of nl KB projectors, LJ projs?
# PAOs:__________________________
  0  6  1  0  2.000000   #orbital l, n, z, is_polarized, population
 500    0.9736901584049848E-02     4.858713890440874     # npts, delta, cutoff
     0.000000000000000        0.7206453883706704E-01
    0.9736901584049848E-02    0.7211058304715022E-01
    0.1947380316809970E-01    0.7225407766509168E-01
    0.2921070475214954E-01    0.7249312233859517E-01
    0.3894760633619939E-01    0.7282754539730807E-01
    0.4868450792024924E-01    0.7325710740470076E-01
    0.5842140950429908E-01    0.7378150119550589E-01
    0.6815831108834894E-01    0.7440035227492531E-01
    0.7789521267239878E-01    0.7511321934725973E-01
    0.8763211425644862E-01    0.7591959494699635E-01
    0.9736901584049848E-01    0.7681890616573551E-01
    0.1071059174245483        0.7781051547186021E-01
    0.1168428190085982        0.7889372162058157E-01
    0.1265797205926480        0.8006776065208090E-01
    0.1363166221766979        0.8133180697537545E-01
    0.1460535237607477        0.8268497453539196E-01
    0.1557904253447976        0.8412631806056808E-01
    0.1655273269288474        0.8565483438814081E-01
    0.1752642285128972        0.8726946386411795E-01
    0.1850011300969471        0.8896909181477898E-01
    0.1947380316809970        0.9075255008640086E-01
    0.2044749332650468        0.9261861864976953E-01
    0.2142118348490966        0.9456602726590609E-01
    0.2239487364331465        0.9659345720931486E-01
    0.2336856380171963        0.9869954304495322E-01
    0.2434225396012462        0.1008828744550138    
    0.2531594411852960        0.1031419981115242    
    0.2628963427693459        0.1054754195906816    
    0.2726332443533958        0.1078816053247730    
    0.2823701459374456        0.1103589845874642    
    0.2921070475214954        0.1129059515081934    
    0.3018439491055453        0.1155208671113677    
    0.3115808506895951        0.1182020613760233    
    0.3213177522736450        0.1209478353116031    
    0.3310546538576948        0.1237564630454888    
    0.3407915554417447        0.1266261939179371    
    0.3505284570257945        0.1295552545800783    
    0.3602653586098444        0.1325418510906661    
    0.3700022601938942        0.1355841710073075    
    0.3797391617779440        0.1386803854679424    
    0.3894760633619939        0.1418286512584125    
    0.3992129649460437        0.1450271128620199    
    0.4089498665300936        0.1482739044870628    
    0.4186867681141435        0.1515671520684257    
    0.4284236696981933        0.1549049752393976    
    0.4381605712822431        0.1582854892700108    
    0.4478974728662930        0.1617068069683016    
    0.4576343744503428        0.1651670405410368    
    0.4673712760343927        0.1686643034105714    
    0.4771081776184425        0.1721967119846632    
    0.4868450792024924        0.1757623873762126    
    0.4965819807865423        0.1793594570700621    
    0.5063188823705921        0.1829860565341544    
    0.5160557839546419        0.1866403307725225    
    0.5257926855386917        0.1903204358177665    
    0.5355295871227416        0.1940245401608515    
    0.5452664887067915        0.1977508261162574    
    0.5550033902908413        0.2014974911206939    
    0.5647402918748912        0.2052627489638058    
    0.5744771934589410        0.2090448309494838    
    0.5842140950429908        0.2128419869865943    
    0.5939509966270407        0.2166524866081604    
    0.6036878982110906        0.2204746199182232    
    0.6134247997951404        0.2243066984658147    
    0.6231617013791902        0.2281470560456907    
    0.6328986029632401        0.2319940494256684    
    0.6426355045472899        0.2358460590006279    
    0.6523724061313398        0.2397014893734299    
    0.6621093077153897        0.2435587698632089    
    0.6718462092994395        0.2474163549417026    
    0.6815831108834893        0.2512727245984645    
    0.6913200124675392        0.2551263846360035    
    0.7010569140515890        0.2589758668960859    
    0.7107938156356389        0.2628197294185999    
    0.7205307172196888        0.2666565565345839    
    0.7302676188037386        0.2704849588951643    
    0.7400045203877884        0.2743035734383365    
    0.7497414219718382        0.2781110632956640    
    0.7594783235558881        0.2819061176411203    
    0.7692152251399380        0.2856874514844607    
    0.7789521267239878        0.2894538054116169    
    0.7886890283080377        0.2932039452747557    
    0.7984259298920875        0.2969366618347518    
    0.8081628314761373        0.3006507703589325    
    0.8178997330601872        0.3043451101770553    
    0.8276366346442371        0.3080185441985681    
    0.8373735362282869        0.3116699583942745    
    0.8471104378123367        0.3152982612456097    
    0.8568473393963866        0.3189023831647951    
    0.8665842409804364        0.3224812758891481    
    0.8763211425644862        0.3260339118529388    
    0.8860580441485362        0.3295592835401434    
    0.8957949457325860        0.3330564028214936    
    0.9055318473166358        0.3365243002792372    
    0.9152687489006857        0.3399620245230061    
    0.9250056504847355        0.3433686415001880    
    0.9347425520687853        0.3467432338041531    
    0.9444794536528353        0.3500848999837010    
    0.9542163552368851        0.3533927538569829    
    0.9639532568209349        0.3566659238331702    
    0.9736901584049847        0.3599035522450288    
    0.9834270599890346        0.3631047946955031    
    0.9931639615730845        0.3662688194213393    
     1.002900863157134        0.3693948066766850    
     1.012637764741184        0.3724819481394637    
     1.022374666325234        0.3755294463433348    
     1.032111567909284        0.3785365141377138    
     1.041848469493334        0.3815023741784827    
     1.051585371077383        0.3844262584516997    
     1.061322272661433        0.3873074078324010    
     1.071059174245483        0.3901450716808364    
     1.080796075829533        0.3929385074778233    
     1.090532977413583        0.3956869805010881    
     1.100269878997633        0.3983897635442242    
     1.110006780581683        0.4010461366797100    
     1.119743682165733        0.4036553870672011    
     1.129480583749782        0.4062168088082767    
     1.139217485333832        0.4087297028485800    
     1.148954386917882        0.4111933769280329    
     1.158691288501932        0.4136071455797608    
     1.168428190085982        0.4159703301781001    
     1.178165091670031        0.4182822590359014    
     1.187901993254081        0.4205422675511875    
     1.197638894838131        0.4227496984029779    
     1.207375796422181        0.4249039017959608    
     1.217112698006231        0.4270042357534830    
     1.226849599590281        0.4290500664582225    
     1.236586501174331        0.4310407686396696    
     1.246323402758380        0.4329757260072684    
     1.256060304342430        0.4348543317281577    
     1.265797205926480        0.4366759889481281    
     1.275534107510530        0.4384401113541523    
     1.285271009094580        0.4401461237768733    
     1.295007910678630        0.4417934628312609    
     1.304744812262680        0.4433815775933782    
     1.314481713846730        0.4449099303111683    
     1.324218615430779        0.4463779971470518    
     1.333955517014829        0.4477852689498181    
     1.343692418598879        0.4491312520535241    
     1.353429320182929        0.4504154691007054    
     1.363166221766979        0.4516374598870603    
     1.372903123351028        0.4527967822251022    
     1.382640024935078        0.4538930128235711    
     1.392376926519128        0.4549257481799772    
     1.402113828103178        0.4558946054830330    
     1.411850729687228        0.4567992235218382    
     1.421587631271278        0.4576392635990809    
     1.431324532855328        0.4584144104444734    
     1.441061434439378        0.4591243731259284    
     1.450798336023427        0.4597688859546539    
     1.460535237607477        0.4603477093813135    
     1.470272139191527        0.4608606308799806    
     1.480009040775577        0.4613074658164000    
     1.489745942359627        0.4616880582980228    
     1.499482843943676        0.4620022820016627    
     1.509219745527726        0.4622500409768059    
     1.518956647111776        0.4624312704204053    
     1.528693548695826        0.4625459374211257    
     1.538430450279876        0.4625940416692829    
     1.548167351863926        0.4625756161302100    
     1.557904253447976        0.4624907276779590    
     1.567641155032026        0.4623394776867410    
     1.577378056616075        0.4621220025775356    
     1.587114958200125        0.4618384743173283    
     1.596851859784175        0.4614891008688268    
     1.606588761368225        0.4610741265881256    
     1.616325662952275        0.4605938325685338    
     1.626062564536324        0.4600485369283430    
     1.635799466120374        0.4594385950409475    
     1.645536367704424        0.4587643997055210    
     1.655273269288474        0.4580263812567984    
     1.665010170872524        0.4572250076126692    
     1.674747072456574        0.4563607842582258    
     1.684483974040624        0.4554342541655940    
     1.694220875624673        0.4544459976482558    
     1.703957777208723        0.4533966321497622    
     1.713694678792773        0.4522868119657302    
     1.723431580376823        0.4511172278994810    
     1.733168481960873        0.4498886068399334    
     1.742905383544923        0.4486017215206739    
     1.752642285128972        0.4472573654253686    
     1.762379186713023        0.4458563643299735    
     1.772116088297072        0.4443995840732226    
     1.781852989881122        0.4428879235429712    
     1.791589891465172        0.4413223138691013    
     1.801326793049222        0.4397037175557695    
     1.811063694633272        0.4380331275541125    
     1.820800596217321        0.4363115662731373    
     1.830537497801371        0.4345400845347612    
     1.840274399385421        0.4327197604704804    
     1.850011300969471        0.4308516983654322    
     1.859748202553521        0.4289370274491884    
     1.869485104137571        0.4269769006369639    
     1.879222005721621        0.4249724932239744    
     1.888958907305671        0.4229250015332132    
     1.898695808889720        0.4208356415235679    
     1.908432710473770        0.4187056473552239    
     1.918169612057820        0.4165362699218317    
     1.927906513641870        0.4143287753465565    
     1.937643415225920        0.4120844434490409    
     1.947380316809969        0.4098045661853407    
     1.957117218394019        0.4074904460622382    
     1.966854119978069        0.4051433945339165    
     1.976591021562119        0.4027647303779561    
     1.986327923146169        0.4003557780608833    
     1.996064824730219        0.3979178660915818    
     2.005801726314269        0.3954523253682953    
     2.015538627898319        0.3929604875241708    
     2.025275529482368        0.3904436832703128    
     2.035012431066418        0.3879032407476067    
     2.044749332650468        0.3853404838807519    
     2.054486234234518        0.3827567307465909    
     2.064223135818568        0.3801532919615254    
     2.073960037402617        0.3775314690774115    
     2.083696938986667        0.3748925530024705    
     2.093433840570717        0.3722378224609459    
     2.103170742154767        0.3695685424725867    
     2.112907643738817        0.3668859628453945    
     2.122644545322867        0.3641913167329682    
     2.132381446906916        0.3614858192289727    
     2.142118348490966        0.3587706659813891    
     2.151855250075016        0.3560470318206922    
     2.161592151659066        0.3533160695225533    
     2.171329053243116        0.3505789085887719    
     2.181065954827166        0.3478366540422907    
     2.190802856411216        0.3450903852933853    
     2.200539757995266        0.3423411550924128    
     2.210276659579316        0.3395899885101991    
     2.220013561163365        0.3368378819925913    
     2.229750462747415        0.3340858024744274    
     2.239487364331465        0.3313346865664065    
     2.249224265915515        0.3285854398033538    
     2.258961167499565        0.3258389359606226    
     2.268698069083614        0.3230960164405544    
     2.278434970667664        0.3203574897296549    
     2.288171872251714        0.3176241309277245    
     2.297908773835764        0.3148966813484915    
     2.307645675419814        0.3121758481930762    
     2.317382577003864        0.3094623042963390    
     2.327119478587913        0.3067566879467015    
     2.336856380171963        0.3040596027789434    
     2.346593281756013        0.3013716177348607    
     2.356330183340063        0.2986932670343421    
     2.366067084924113        0.2960250503458263    
     2.375803986508163        0.2933674331704741    
     2.385540888092213        0.2907208473954321    
     2.395277789676263        0.2880856910330835    
     2.405014691260313        0.2854623275866502    
     2.414751592844362        0.2828510860775144    
     2.424488494428412        0.2802522634475373    
     2.434225396012462        0.2776661287289334    
     2.443962297596512        0.2750929275137087    
     2.453699199180562        0.2725328866061845    
     2.463436100764612        0.2699862182398458    
     2.473173002348661        0.2674531238983469    
     2.482909903932711        0.2649337955550954    
     2.492646805516761        0.2624284153969471    
     2.502383707100811        0.2599371550265167    
     2.512120608684861        0.2574601755039251    
     2.521857510268910        0.2549976279700178    
     2.531594411852960        0.2525496541074806    
     2.541331313437010        0.2501163865062433    
     2.551068215021060        0.2476979488940360    
     2.560805116605110        0.2452944564235517    
     2.570542018189160        0.2429060159511506    
     2.580278919773209        0.2405327262788389    
     2.590015821357259        0.2381746784257927    
     2.599752722941309        0.2358319558785454    
     2.609489624525359        0.2335046348441509    
     2.619226526109409        0.2311927844867520    
     2.628963427693459        0.2288964671563078    
     2.638700329277509        0.2266157386183977    
     2.648437230861559        0.2243506482715810    
     2.658174132445609        0.2221012393653548    
     2.667911034029658        0.2198675492036321    
     2.677647935613708        0.2176496093473710    
     2.687384837197758        0.2154474458111586    
     2.697121738781808        0.2132610792536360    
     2.706858640365858        0.2110905251624073    
     2.716595541949907        0.2089357940342818    
     2.726332443533957        0.2067968915503815    
     2.736069345118007        0.2046738187452936    
     2.745806246702057        0.2025665721721574    
     2.755543148286107        0.2004751440637422    
     2.765280049870157        0.1983995224873475    
     2.775016951454206        0.1963396914961180    
     2.784753853038256        0.1942956312764026    
     2.794490754622306        0.1922673182901360    
     2.804227656206356        0.1902547254132906    
     2.813964557790406        0.1882578220705080    
     2.823701459374456        0.1862765743659336    
     2.833438360958506        0.1843109452097936    
     2.843175262542556        0.1823608944416031    
     2.852912164126606        0.1804263789498138    
     2.862649065710655        0.1785073527877954    
     2.872385967294705        0.1766037672865017    
     2.882122868878755        0.1747155711637899    
     2.891859770462805        0.1728427106304820    
     2.901596672046855        0.1709851294934179    
     2.911333573630905        0.1691427692554244    
     2.921070475214954        0.1673155692119804    
     2.930807376799004        0.1655034665454926    
     2.940544278383054        0.1637063964165568    
     2.950281179967104        0.1619242920524344    
     2.960018081551154        0.1601570848325845    
     2.969754983135203        0.1584047043722953    
     2.979491884719253        0.1566670786034194    
     2.989228786303303        0.1549441338522843    
     2.998965687887353        0.1532357949157366    
     3.008702589471403        0.1515419851348584    
     3.018439491055453        0.1498626264663644    
     3.028176392639502        0.1481976395510991    
     3.037913294223552        0.1465469437815860    
     3.047650195807602        0.1449104573668532    
     3.057387097391652        0.1432880973952952    
     3.067123998975702        0.1416797798951658    
     3.076860900559752        0.1400854198941075    
     3.086597802143802        0.1385049314762161    
     3.096334703727852        0.1369382278371581    
     3.106071605311902        0.1353852213377077    
     3.115808506895951        0.1338458235558694    
     3.125545408480001        0.1323199453370968    
     3.135282310064051        0.1308074968425474    
     3.145019211648101        0.1293083875963043    
     3.154756113232151        0.1278225265309203    
     3.164493014816200        0.1263498220314632    
     3.174229916400250        0.1248901819777882    
     3.183966817984300        0.1234435137859290    
     3.193703719568350        0.1220097244478667    
     3.203440621152400        0.1205887205700156    
     3.213177522736450        0.1191804084102515    
     3.222914424320499        0.1177846939139671    
     3.232651325904549        0.1164014827487487    
     3.242388227488599        0.1150306803378910    
     3.252125129072649        0.1136721918927702    
     3.261862030656699        0.1123259224440887    
     3.271598932240749        0.1109917768720378    
     3.281335833824798        0.1096696599353763    
     3.291072735408849        0.1083594762996566    
     3.300809636992899        0.1070611305641670    
     3.310546538576948        0.1057745272880805    
     3.320283440160998        0.1044995710155753    
     3.330020341745048        0.1032361663003619    
     3.339757243329098        0.1019842177288033    
     3.349494144913148        0.1007436299424877    
     3.359231046497198        0.9951430765981516E-01
     3.368967948081247        0.9829615569722169E-01
     3.378704849665297        0.9708907898892880E-01
     3.388441751249347        0.9589298260631489E-01
     3.398178652833397        0.9470777177638062E-01
     3.407915554417447        0.9353335189996292E-01
     3.417652456001496        0.9236962856857588E-01
     3.427389357585546        0.9121650758089937E-01
     3.437126259169596        0.9007389495850475E-01
     3.446863160753646        0.8894169696127571E-01
     3.456600062337696        0.8781982010181888E-01
     3.466336963921746        0.8670817115930347E-01
     3.476073865505795        0.8560665719281144E-01
     3.485810767089845        0.8451518555418705E-01
     3.495547668673895        0.8343366390038649E-01
     3.505284570257945        0.8236200020492730E-01
     3.515021471841995        0.8130010276912930E-01
     3.524758373426045        0.8024788023273016E-01
     3.534495275010095        0.7920524158431166E-01
     3.544232176594145        0.7817209617072658E-01
     3.553969078178195        0.7714835370641601E-01
     3.563705979762244        0.7613392428215492E-01
     3.573442881346294        0.7512871837357100E-01
     3.583179782930344        0.7413264684896681E-01
     3.592916684514394        0.7314562097685465E-01
     3.602653586098444        0.7216755243309989E-01
     3.612390487682493        0.7119835330770286E-01
     3.622127389266543        0.7023793611121407E-01
     3.631864290850593        0.6928621378071184E-01
     3.641601192434643        0.6834309968550624E-01
     3.651338094018693        0.6740850763248546E-01
     3.661074995602743        0.6648235187113521E-01
     3.670811897186792        0.6556454709824824E-01
     3.680548798770842        0.6465500846232225E-01
     3.690285700354892        0.6375365156767705E-01
     3.700022601938942        0.6286039247824345E-01
     3.709759503522992        0.6197514772109534E-01
     3.719496405107042        0.6109783428975888E-01
     3.729233306691091        0.6022836964720949E-01
     3.738970208275141        0.5936667172866432E-01
     3.748707109859192        0.5851265894398171E-01
     3.758444011443241        0.5766625018005129E-01
     3.768180913027291        0.5682736480282406E-01
     3.777917814611341        0.5599592265915661E-01
     3.787654716195391        0.5517184407841262E-01
     3.797391617779441        0.5435504987381490E-01
     3.807128519363491        0.5354546134375836E-01
     3.816865420947540        0.5274300027279899E-01
     3.826602322531590        0.5194758893252314E-01
     3.836339224115640        0.5115915008210813E-01
     3.846076125699690        0.5037760696886923E-01
     3.855813027283740        0.4960288332858813E-01
     3.865549928867789        0.4883490338565392E-01
     3.875286830451839        0.4807359185308917E-01
     3.885023732035889        0.4731887393229243E-01
     3.894760633619939        0.4657067531284478E-01
     3.904497535203989        0.4582892217204752E-01
     3.914234436788039        0.4509354117437932E-01
     3.923971338372088        0.4436445947084466E-01
     3.933708239956138        0.4364160469768172E-01
     3.943445141540188        0.4292490497598181E-01
     3.953182043124238        0.4221428891044110E-01
     3.962918944708288        0.4150968558840082E-01
     3.972655846292338        0.4081102457828012E-01
     3.982392747876388        0.4011823592763271E-01
     3.992129649460438        0.3943125016260457E-01
     4.001866551044487        0.3874999828592044E-01
     4.011603452628537        0.3807441177250304E-01
     4.021340354212587        0.3740442257346577E-01
     4.031077255796637        0.3673996311410721E-01
     4.040814157380686        0.3608096628614137E-01
     4.050551058964737        0.3542736544832049E-01
     4.060287960548786        0.3477909443040623E-01
     4.070024862132836        0.3413608751686580E-01
     4.079761763716887        0.3349827944991699E-01
     4.089498665300936        0.3286560543532269E-01
     4.099235566884986        0.3223800113562213E-01
     4.108972468469036        0.3161540266355691E-01
     4.118709370053086        0.3099774658687649E-01
     4.128446271637135        0.3038496992681811E-01
     4.138183173221186        0.2977701014659443E-01
     4.147920074805235        0.2917380515118381E-01
     4.157656976389285        0.2857529328525272E-01
     4.167393877973335        0.2798141333141951E-01
     4.177130779557385        0.2739210450777212E-01
     4.186867681141434        0.2680730646470472E-01
     4.196604582725485        0.2622695928203002E-01
     4.206341484309534        0.2565100346600974E-01
     4.216078385893584        0.2507937994621158E-01
     4.225815287477634        0.2451203007242086E-01
     4.235552189061684        0.2394889561170709E-01
     4.245289090645733        0.2338991874534361E-01
     4.255025992229784        0.2283504206568528E-01
     4.264762893813833        0.2228420857301820E-01
     4.274499795397883        0.2173736167238389E-01
     4.284236696981933        0.2119444517037996E-01
     4.293973598565983        0.2065540327193833E-01
     4.303710500150032        0.2012018057707942E-01
     4.313447401734082        0.1958872207764830E-01
     4.323184303318133        0.1906097315403142E-01
     4.332921204902182        0.1853687957184169E-01
     4.342658106486232        0.1801638747858637E-01
     4.352395008070282        0.1749944340032025E-01
     4.362131909654332        0.1698599423828190E-01
     4.371868811238381        0.1647598726551193E-01
     4.381605712822432        0.1596937012346055E-01
     4.391342614406481        0.1546609081857956E-01
     4.401079515990531        0.1496609771890356E-01
     4.410816417574581        0.1446933955328177E-01
     4.420553319158631        0.1397576555926703E-01
     4.430290220742680        0.1348532732163533E-01
     4.440027122326731        0.1299798686280971E-01
     4.449764023910780        0.1251373432170353E-01
     4.459500925494830        0.1203261177299551E-01
     4.469237827078880        0.1155473577631184E-01
     4.478974728662930        0.1108031288532190E-01
     4.488711630246979        0.1060964598759992E-01
     4.498448531831030        0.1014313212636132E-01
     4.508185433415079        0.9681253771964131E-02
     4.517922334999129        0.9224565777030064E-02
     4.527659236583179        0.8773679984442794E-02
     4.537396138167229        0.8329249012575488E-02
     4.547133039751279        0.7891950297012743E-02
     4.556869941335329        0.7462471094629781E-02
     4.566606842919379        0.7041494870323767E-02
     4.576343744503428        0.6629689280978015E-02
     4.586080646087479        0.6227695829803829E-02
     4.595817547671528        0.5836121171139379E-02
     4.605554449255578        0.5455529987541403E-02
     4.615291350839628        0.5086439327109359E-02
     4.625028252423678        0.4729314271589947E-02
     4.634765154007727        0.4384564799370314E-02
     4.644502055591778        0.4052543708008166E-02
     4.654238957175827        0.3733545465798062E-02
     4.663975858759877        0.3427805869124681E-02
     4.673712760343927        0.3135502390804838E-02
     4.683449661927977        0.2856755113351611E-02
     4.693186563512026        0.2591628149550076E-02
     4.702923465096077        0.2340131460408635E-02
     4.712660366680126        0.2102222987052195E-02
     4.722397268264176        0.1877811017939645E-02
     4.732134169848226        0.1666756715267205E-02
     4.741871071432276        0.1468876723430912E-02
     4.751607973016325        0.1283945776086921E-02
     4.761344874600375        0.1111699203163192E-02
     4.771081776184426        0.9518352085120631E-03
     4.780818677768475        0.8040167294208440E-03
     4.790555579352525        0.6678725726986679E-03
     4.800292480936575        0.5429972844245925E-03
     4.810029382520625        0.4289486933402788E-03
     4.819766284104674        0.3252408360404765E-03
     4.829503185688725        0.2313266484063132E-03
     4.839240087272774        0.1465540880339179E-03
     4.848976988856824        0.7003350996233176E-04
     4.858713890440874         0.000000000000000    
  1  6  1  0  3.000000   #orbital l, n, z, is_polarized, population
 500    0.1283812465145806E-01     6.406224201077572     # npts, delta, cutoff
     0.000000000000000        0.5460831251252140E-01
    0.1283812465145806E-01    0.5463883861329534E-01
    0.2567624930291612E-01    0.5473037422808796E-01
    0.3851437395437418E-01    0.5488279135370257E-01
    0.5135249860583224E-01    0.5509587746517881E-01
    0.6419062325729030E-01    0.5536933665524545E-01
    0.7702874790874836E-01    0.5570279121739827E-01
    0.8986687256020642E-01    0.5609578361987748E-01
    0.1027049972116645        0.5654777882833172E-01
    0.1155431218631225        0.5705816692951751E-01