<pdos>
<nspin>1</nspin>
<norbitals>18</norbitals>
<fermi_energy units="eV"> -0.448376650E+01</fermi_energy>
<energy_values units="eV">
 -0.548376650E+01
 -0.547371625E+01
 -0.546366600E+01
 -0.545361575E+01
 -0.544356550E+01
 -0.543351525E+01
 -0.542346500E+01
 -0.541341475E+01
 -0.540336449E+01
 -0.539331424E+01
 -0.538326399E+01
 -0.537321374E+01
 -0.536316349E+01
 -0.535311324E+01
 -0.534306299E+01
 -0.533301274E+01
 -0.532296248E+01
 -0.531291223E+01
 -0.530286198E+01
 -0.529281173E+01
 -0.528276148E+01
 -0.527271123E+01
 -0.526266098E+01
 -0.525261073E+01
 -0.524256047E+01
 -0.523251022E+01
 -0.522245997E+01
 -0.521240972E+01
 -0.520235947E+01
 -0.519230922E+01
 -0.518225897E+01
 -0.517220872E+01
 -0.516215846E+01
 -0.515210821E+01
 -0.514205796E+01
 -0.513200771E+01
 -0.512195746E+01
 -0.511190721E+01
 -0.510185696E+01
 -0.509180671E+01
 -0.508175645E+01
 -0.507170620E+01
 -0.506165595E+01
 -0.505160570E+01
 -0.504155545E+01
 -0.503150520E+01
 -0.502145495E+01
 -0.501140470E+01
 -0.500135444E+01
 -0.499130419E+01
 -0.498125394E+01
 -0.497120369E+01
 -0.496115344E+01
 -0.495110319E+01
 -0.494105294E+01
 -0.493100269E+01
 -0.492095243E+01
 -0.491090218E+01
 -0.490085193E+01
 -0.489080168E+01
 -0.488075143E+01
 -0.487070118E+01
 -0.486065093E+01
 -0.485060068E+01
 -0.484055042E+01
 -0.483050017E+01
 -0.482044992E+01
 -0.481039967E+01
 -0.480034942E+01
 -0.479029917E+01
 -0.478024892E+01
 -0.477019867E+01
 -0.476014841E+01
 -0.475009816E+01
 -0.474004791E+01
 -0.472999766E+01
 -0.471994741E+01
 -0.470989716E+01
 -0.469984691E+01
 -0.468979666E+01
 -0.467974640E+01
 -0.466969615E+01
 -0.465964590E+01
 -0.464959565E+01
 -0.463954540E+01
 -0.462949515E+01
 -0.461944490E+01
 -0.460939465E+01
 -0.459934439E+01
 -0.458929414E+01
 -0.457924389E+01
 -0.456919364E+01
 -0.455914339E+01
 -0.454909314E+01
 -0.453904289E+01
 -0.452899264E+01
 -0.451894238E+01
 -0.450889213E+01
 -0.449884188E+01
 -0.448879163E+01
 -0.447874138E+01
 -0.446869113E+01
 -0.445864088E+01
 -0.444859063E+01
 -0.443854037E+01
 -0.442849012E+01
 -0.441843987E+01
 -0.440838962E+01
 -0.439833937E+01
 -0.438828912E+01
 -0.437823887E+01
 -0.436818862E+01
 -0.435813836E+01
 -0.434808811E+01
 -0.433803786E+01
 -0.432798761E+01
 -0.431793736E+01
 -0.430788711E+01
 -0.429783686E+01
 -0.428778661E+01
 -0.427773635E+01
 -0.426768610E+01
 -0.425763585E+01
 -0.424758560E+01
 -0.423753535E+01
 -0.422748510E+01
 -0.421743485E+01
 -0.420738460E+01
 -0.419733434E+01
 -0.418728409E+01
 -0.417723384E+01
 -0.416718359E+01
 -0.415713334E+01
 -0.414708309E+01
 -0.413703284E+01
 -0.412698259E+01
 -0.411693233E+01
 -0.410688208E+01
 -0.409683183E+01
 -0.408678158E+01
 -0.407673133E+01
 -0.406668108E+01
 -0.405663083E+01
 -0.404658057E+01
 -0.403653032E+01
 -0.402648007E+01
 -0.401642982E+01
 -0.400637957E+01
 -0.399632932E+01
 -0.398627907E+01
 -0.397622882E+01
 -0.396617856E+01
 -0.395612831E+01
 -0.394607806E+01
 -0.393602781E+01
 -0.392597756E+01
 -0.391592731E+01
 -0.390587706E+01
 -0.389582681E+01
 -0.388577655E+01
 -0.387572630E+01
 -0.386567605E+01
 -0.385562580E+01
 -0.384557555E+01
 -0.383552530E+01
 -0.382547505E+01
 -0.381542480E+01
 -0.380537454E+01
 -0.379532429E+01
 -0.378527404E+01
 -0.377522379E+01
 -0.376517354E+01
 -0.375512329E+01
 -0.374507304E+01
 -0.373502279E+01
 -0.372497253E+01
 -0.371492228E+01
 -0.370487203E+01
 -0.369482178E+01
 -0.368477153E+01
 -0.367472128E+01
 -0.366467103E+01
 -0.365462078E+01
 -0.364457052E+01
 -0.363452027E+01
 -0.362447002E+01
 -0.361441977E+01
 -0.360436952E+01
 -0.359431927E+01
 -0.358426902E+01
 -0.357421877E+01
 -0.356416851E+01
 -0.355411826E+01
 -0.354406801E+01
 -0.353401776E+01
 -0.352396751E+01
 -0.351391726E+01
 -0.350386701E+01
 -0.349381676E+01
 -0.348376650E+01
</energy_values>
<orbital 
 index="                        1" 
 atom_index="                        1" 
 species="Si" 
 Z="                       14" 
 position="   0.000000   0.000000   0.000000" 
 n="                        3" 
 l="                        0" 
 m="                        0" 
 z="                        1" 
 P="false" 
>
<data>
  0.905700812E-09
  0.607178132E-09
  0.405420566E-09
  0.269727565E-09
  0.178902668E-09
  0.118392551E-09
  0.782602283E-10
  0.517580069E-10
  0.343288452E-10
  0.229117474E-10
  0.270979256E-11
  0.251449430E-11
  0.235995486E-11
  0.224315200E-11
  0.216094749E-11
  0.211012992E-11
  0.208745928E-11
  0.208968713E-11
  0.211359154E-11
  0.215599664E-11
  0.221379124E-11
  0.228394500E-11
  0.236352292E-11
  0.244969898E-11
  0.253976946E-11
  0.263116629E-11
  0.272147076E-11
  0.280842752E-11
  0.288995875E-11
  0.296417826E-11
  0.302940506E-11
  0.308417591E-11
  0.312725628E-11
  0.315764925E-11
  0.317460166E-11
  0.317760716E-11
  0.316640568E-11
  0.314097918E-11
  0.310154333E-11
  0.304853528E-11
  0.298259767E-11
  0.290455904E-11
  0.281541121E-11
  0.271628407E-11
  0.260841839E-11
  0.249313748E-11
  0.237181825E-11
  0.224586252E-11
  0.211666920E-11
  0.198560820E-11
  0.185399635E-11
  0.172307615E-11
  0.159399750E-11
  0.146780288E-11
  0.134541598E-11
  0.939490363E-11
  0.138303501E-10
  0.207044159E-10
  0.312635017E-10
  0.473624185E-10
  0.717463777E-10
  0.108456154E-09
  0.163406691E-09
  0.245208372E-09
  0.366325560E-09
  0.544700840E-09
  0.806017992E-09
  0.118683512E-08
  0.173889513E-08
  0.253501818E-08
  0.367710493E-08
  0.530693623E-08
  0.762065070E-08
  0.108880242E-07
  0.154779714E-07
  0.218920497E-07
  0.308081713E-07
  0.431372385E-07
  0.600960011E-07
  0.833001069E-07
  0.114882070E-06
  0.157639712E-06
  0.215221516E-06
  0.292356263E-06
  0.395151093E-06
  0.531380939E-06
  0.710977481E-06
  0.946483124E-06
  0.125365241E-05
  0.165214717E-05
  0.216634569E-05
  0.282627453E-05
  0.366867602E-05
  0.473818123E-05
  0.608866482E-05
  0.778468042E-05
  0.990303009E-05
  0.125344218E-04
  0.157851885E-04
  0.197790263E-04
  0.246587011E-04
  0.305876561E-04
  0.377514433E-04
  0.463588904E-04
  0.566429011E-04
  0.688607876E-04
  0.832939798E-04
  0.100247089E-03
  0.120046093E-03
  0.143035626E-03
  0.169575252E-03
  0.200034651E-03
  0.234787710E-03
  0.274205499E-03
  0.318648197E-03
  0.368456073E-03
  0.423939683E-03
  0.485369507E-03
  0.552965334E-03
  0.626885597E-03
  0.707217389E-03
  0.793967173E-03
  0.887052943E-03
  0.986298220E-03
  0.109142834E-02
  0.120206949E-02
  0.131775089E-02
  0.143791033E-02
  0.156190344E-02
  0.168901654E-02
  0.181848314E-02
  0.194950387E-02
  0.208126931E-02
  0.221298525E-02
  0.234389964E-02
  0.247333035E-02
  0.260069272E-02
  0.272552590E-02
  0.284751672E-02
  0.296652016E-02
  0.308257521E-02
  0.319591512E-02
  0.330697143E-02
  0.341637077E-02
  0.352492459E-02
  0.363361123E-02
  0.374355075E-02
  0.385597290E-02
  0.397217941E-02
  0.409350106E-02
  0.422125155E-02
  0.435667930E-02
  0.450091923E-02
  0.465494609E-02
  0.481953153E-02
  0.499520641E-02
  0.518223028E-02
  0.538056937E-02
  0.558988426E-02
  0.580952826E-02
  0.603855668E-02
  0.627574723E-02
  0.651963111E-02
  0.676853383E-02
  0.702062459E-02
  0.727397256E-02
  0.752660804E-02
  0.777658638E-02
  0.802205221E-02
  0.826130157E-02
  0.849283955E-02
  0.871543116E-02
  0.892814343E-02
  0.913037693E-02
  0.932188554E-02
  0.950278350E-02
  0.967353945E-02
  0.983495764E-02
  0.998814698E-02
  0.101344792E-01
  0.102755380E-01
  0.104130606E-01
  0.105488751E-01
  0.106848358E-01
  0.108227590E-01
  0.109643624E-01
  0.111112114E-01
  0.112646727E-01
  0.114258802E-01
  0.115957127E-01
  0.117747846E-01
  0.119634516E-01
  0.121618299E-01
  0.123698284E-01
  0.125871926E-01
  0.128135584E-01
  0.130485117E-01
  0.132916533E-01
  0.135426620E-01
  0.138013562E-01
</data>
</orbital>
<orbital 
 index="                        2" 
 atom_index="                        1" 
 species="Si" 
 Z="                       14" 
 position="   0.000000   0.000000   0.000000" 
 n="                        3" 
 l="                        1" 
 m="                       -1" 
 z="                        1" 
 P="false" 
>
<data>
  0.202829920E-01
  0.188530259E-01
  0.175697130E-01
  0.164396923E-01
  0.154680163E-01
  0.146581606E-01
  0.140120447E-01
  0.135300580E-01
  0.132110912E-01
  0.130525696E-01
  0.130504882E-01
  0.131994482E-01
  0.134926946E-01
  0.139221569E-01
  0.144784956E-01
  0.151511541E-01
  0.159284225E-01
  0.167975120E-01
  0.177446464E-01
  0.187551707E-01
  0.198136789E-01
  0.209041634E-01
  0.220101850E-01
  0.231150630E-01
  0.242020840E-01
  0.252547266E-01
  0.262568965E-01
  0.271931700E-01
  0.280490371E-01
  0.288111401E-01
  0.294675004E-01
  0.300077271E-01
  0.304232001E-01
  0.307072226E-01
  0.308551381E-01
  0.308644057E-01
  0.307346333E-01
  0.304675645E-01
  0.300670204E-01
  0.295387966E-01
  0.288905181E-01
  0.281314566E-01
  0.272723137E-01
  0.263249772E-01
  0.253022582E-01
  0.242176130E-01
  0.230848612E-01
  0.219179054E-01
  0.207304598E-01
  0.195357948E-01
  0.183465040E-01
  0.171742976E-01
  0.160298272E-01
  0.149225441E-01
  0.138605938E-01
  0.128507466E-01
  0.118983634E-01
  0.110073974E-01
  0.101804262E-01
  0.941871387E-02
  0.872229827E-02
  0.809009933E-02
  0.752004405E-02
  0.700920439E-02
  0.655394261E-02
  0.615006042E-02
  0.579294758E-02
  0.547772639E-02
  0.519938882E-02
  0.495292333E-02
  0.473342942E-02
  0.453621770E-02
  0.435689481E-02
  0.419143199E-02
  0.403621747E-02
  0.388809272E-02
  0.374437301E-02
  0.360285383E-02
  0.346180396E-02
  0.331994689E-02
  0.317643236E-02
  0.303079974E-02
  0.288293524E-02
  0.273302470E-02
  0.258150396E-02
  0.242900821E-02
  0.227632237E-02
  0.212433335E-02
  0.197398581E-02
  0.182624213E-02
  0.168204736E-02
  0.154229977E-02
  0.140782707E-02
  0.127936846E-02
  0.115756244E-02
  0.104293991E-02
  0.935922194E-03
  0.836823489E-03
  0.745856973E-03
  0.663143980E-03
  0.588725475E-03
  0.522575138E-03
  0.464613342E-03
  0.414721403E-03
  0.372755475E-03
  0.338559592E-03
  0.311977355E-03
  0.292861955E-03
  0.281084160E-03
  0.276538098E-03
  0.279144690E-03
  0.288852658E-03
  0.305637152E-03
  0.329496073E-03
  0.360444253E-03
  0.398505743E-03
  0.443704488E-03
  0.496053752E-03
  0.555544758E-03
  0.622134786E-03
  0.695735680E-03
  0.776202860E-03
  0.863325428E-03
  0.956818257E-03
  0.105631621E-02
  0.116137111E-02
  0.127145197E-02
  0.138594849E-02
  0.150417869E-02
  0.162539972E-02
  0.174882300E-02
  0.187363261E-02
  0.199900688E-02
  0.212414265E-02
  0.224828139E-02
  0.237073652E-02
  0.249092076E-02
  0.260837259E-02
  0.272278078E-02
  0.283400570E-02
  0.294209646E-02
  0.304730286E-02
  0.315008136E-02
  0.325109411E-02
  0.335120104E-02
  0.345144440E-02
  0.355302592E-02
  0.365727709E-02
  0.376562302E-02
  0.387954101E-02
  0.400051486E-02
  0.412998650E-02
  0.426930651E-02
  0.441968527E-02
  0.458214662E-02
  0.475748577E-02
  0.494623328E-02
  0.514862660E-02
  0.536459070E-02
  0.559372863E-02
  0.583532302E-02
  0.608834874E-02
  0.635149660E-02
  0.662320780E-02
  0.690171810E-02
  0.718511037E-02
  0.747137391E-02
  0.775846850E-02
  0.804439094E-02
  0.832724158E-02
  0.860528841E-02
  0.887702610E-02
  0.914122769E-02
  0.939698673E-02
  0.964374782E-02
  0.988132438E-02
  0.101099022E-01
  0.103300289E-01
  0.105425883E-01
  0.107487616E-01
  0.109499758E-01
  0.111478407E-01
  0.113440787E-01
  0.115404467E-01
  0.117386572E-01
  0.119402978E-01
  0.121467553E-01
  0.123591466E-01
  0.125782587E-01
  0.128045019E-01
  0.130378773E-01
  0.132779609E-01
  0.135239051E-01
  0.137744576E-01
  0.140279977E-01
  0.142825881E-01
  0.145360409E-01
  0.147859940E-01
  0.150299961E-01
  0.152655949E-01
</data>
</orbital>
<orbital 
 index="                        3" 
 atom_index="                        1" 
 species="Si" 
 Z="                       14" 
 position="   0.000000   0.000000   0.000000" 
 n="                        3" 
 l="                        1" 
 m="                        0" 
 z="                        1" 
 P="false" 
>
<data>
  0.202829904E-01
  0.188530243E-01
  0.175697115E-01
  0.164396910E-01
  0.154680150E-01
  0.146581595E-01
  0.140120437E-01
  0.135300571E-01
  0.132110904E-01
  0.130525689E-01
  0.130504877E-01
  0.131994478E-01
  0.134926943E-01
  0.139221567E-01
  0.144784955E-01
  0.151511541E-01
  0.159284225E-01
  0.167975121E-01
  0.177446466E-01
  0.187551710E-01
  0.198136792E-01
  0.209041638E-01
  0.220101853E-01
  0.231150633E-01
  0.242020844E-01
  0.252547269E-01
  0.262568969E-01
  0.271931704E-01
  0.280490374E-01
  0.288111403E-01
  0.294675006E-01
  0.300077273E-01
  0.304232002E-01
  0.307072227E-01
  0.308551381E-01
  0.308644056E-01
  0.307346332E-01
  0.304675643E-01
  0.300670202E-01
  0.295387962E-01
  0.288905178E-01
  0.281314562E-01
  0.272723132E-01
  0.263249767E-01
  0.253022577E-01
  0.242176124E-01
  0.230848606E-01
  0.219179048E-01
  0.207304591E-01
  0.195357941E-01
  0.183465034E-01
  0.171742970E-01
  0.160298265E-01
  0.149225435E-01
  0.138605932E-01
  0.128507460E-01
  0.118983628E-01
  0.110073969E-01
  0.101804257E-01
  0.941871339E-02
  0.872229783E-02
  0.809009892E-02
  0.752004367E-02
  0.700920404E-02
  0.655394230E-02
  0.615006014E-02
  0.579294733E-02
  0.547772617E-02
  0.519938863E-02
  0.495292315E-02
  0.473342927E-02
  0.453621757E-02
  0.435689469E-02
  0.419143190E-02
  0.403621739E-02
  0.388809265E-02
  0.374437295E-02
  0.360285378E-02
  0.346180392E-02
  0.331994686E-02
  0.317643233E-02
  0.303079972E-02
  0.288293522E-02
  0.273302469E-02
  0.258150395E-02
  0.242900820E-02
  0.227632236E-02
  0.212433335E-02
  0.197398581E-02
  0.182624213E-02
  0.168204736E-02
  0.154229977E-02
  0.140782707E-02
  0.127936846E-02
  0.115756244E-02
  0.104293991E-02
  0.935922196E-03
  0.836823491E-03
  0.745856975E-03
  0.663143982E-03
  0.588725479E-03
  0.522575142E-03
  0.464613346E-03
  0.414721407E-03
  0.372755480E-03
  0.338559598E-03
  0.311977362E-03
  0.292861962E-03
  0.281084168E-03
  0.276538107E-03
  0.279144700E-03
  0.288852669E-03
  0.305637165E-03
  0.329496087E-03
  0.360444269E-03
  0.398505761E-03
  0.443704507E-03
  0.496053773E-03
  0.555544780E-03
  0.622134810E-03
  0.695735706E-03
  0.776202887E-03
  0.863325457E-03
  0.956818287E-03
  0.105631624E-02
  0.116137115E-02
  0.127145200E-02
  0.138594852E-02
  0.150417872E-02
  0.162539975E-02
  0.174882303E-02
  0.187363263E-02
  0.199900691E-02
  0.212414267E-02
  0.224828141E-02
  0.237073654E-02
  0.249092077E-02
  0.260837260E-02
  0.272278079E-02
  0.283400571E-02
  0.294209646E-02
  0.304730286E-02
  0.315008136E-02
  0.325109411E-02
  0.335120104E-02
  0.345144440E-02
  0.355302592E-02
  0.365727708E-02
  0.376562302E-02
  0.387954101E-02
  0.400051486E-02
  0.412998651E-02
  0.426930652E-02
  0.441968528E-02
  0.458214663E-02
  0.475748579E-02
  0.494623330E-02
  0.514862664E-02
  0.536459074E-02
  0.559372867E-02
  0.583532307E-02
  0.608834879E-02
  0.635149665E-02
  0.662320785E-02
  0.690171816E-02
  0.718511042E-02
  0.747137396E-02
  0.775846854E-02
  0.804439098E-02
  0.832724162E-02
  0.860528844E-02
  0.887702612E-02
  0.914122771E-02
  0.939698674E-02
  0.964374782E-02
  0.988132437E-02
  0.101099022E-01
  0.103300289E-01
  0.105425883E-01
  0.107487616E-01
  0.109499757E-01
  0.111478407E-01
  0.113440786E-01
  0.115404467E-01
  0.117386572E-01
  0.119402977E-01
  0.121467552E-01
  0.123591465E-01
  0.125782586E-01
  0.128045018E-01
  0.130378772E-01
  0.132779608E-01
  0.135239050E-01
  0.137744575E-01
  0.140279976E-01
  0.142825880E-01
  0.145360408E-01
  0.147859939E-01
  0.150299959E-01
  0.152655947E-01
</data>
</orbital>
<orbital 
 index="                        4" 
 atom_index="                        1" 
 species="Si" 
 Z="                       14" 
 position="   0.000000   0.000000   0.000000" 
 n="                        3" 
 l="                        1" 
 m="                        1" 
 z="                        1" 
 P="false" 
>
<data>
  0.202829887E-01
  0.188530227E-01
  0.175697100E-01
  0.164396896E-01
  0.154680138E-01
  0.146581584E-01
  0.140120427E-01
  0.135300562E-01
  0.132110897E-01
  0.130525683E-01
  0.130504871E-01
  0.131994474E-01
  0.134926939E-01
  0.139221565E-01
  0.144784953E-01
  0.151511541E-01
  0.159284226E-01
  0.167975122E-01
  0.177446468E-01
  0.187551712E-01
  0.198136795E-01
  0.209041641E-01
  0.220101857E-01
  0.231150637E-01
  0.242020848E-01
  0.252547273E-01
  0.262568973E-01
  0.271931707E-01
  0.280490377E-01
  0.288111406E-01
  0.294675009E-01
  0.300077275E-01
  0.304232004E-01
  0.307072228E-01
  0.308551381E-01
  0.308644056E-01
  0.307346331E-01
  0.304675642E-01
  0.300670200E-01
  0.295387960E-01
  0.288905174E-01
  0.281314558E-01
  0.272723128E-01
  0.263249763E-01
  0.253022572E-01
  0.242176118E-01
  0.230848600E-01
  0.219179042E-01
  0.207304585E-01
  0.195357935E-01
  0.183465027E-01
  0.171742964E-01
  0.160298259E-01
  0.149225429E-01
  0.138605926E-01
  0.128507454E-01
  0.118983623E-01
  0.110073964E-01
  0.101804252E-01
  0.941871295E-02
  0.872229742E-02
  0.809009853E-02
  0.752004332E-02
  0.700920372E-02
  0.655394201E-02
  0.615005988E-02
  0.579294709E-02
  0.547772596E-02
  0.519938844E-02
  0.495292299E-02
  0.473342912E-02
  0.453621745E-02
  0.435689458E-02
  0.419143180E-02
  0.403621731E-02
  0.388809258E-02
  0.374437289E-02
  0.360285373E-02
  0.346180388E-02
  0.331994683E-02
  0.317643231E-02
  0.303079970E-02
  0.288293520E-02
  0.273302467E-02
  0.258150393E-02
  0.242900819E-02
  0.227632235E-02
  0.212433334E-02
  0.197398581E-02
  0.182624212E-02
  0.168204736E-02
  0.154229977E-02
  0.140782707E-02
  0.127936846E-02
  0.115756244E-02
  0.104293991E-02
  0.935922193E-03
  0.836823488E-03
  0.745856972E-03
  0.663143978E-03
  0.588725473E-03
  0.522575135E-03
  0.464613339E-03
  0.414721398E-03
  0.372755469E-03
  0.338559585E-03
  0.311977347E-03
  0.292861945E-03
  0.281084147E-03
  0.276538084E-03
  0.279144673E-03
  0.288852639E-03
  0.305637131E-03
  0.329496048E-03
  0.360444226E-03
  0.398505713E-03
  0.443704454E-03
  0.496053716E-03
  0.555544718E-03
  0.622134742E-03
  0.695735634E-03
  0.776202811E-03
  0.863325376E-03
  0.956818203E-03
  0.105631615E-02
  0.116137106E-02
  0.127145191E-02
  0.138594843E-02
  0.150417863E-02
  0.162539965E-02
  0.174882294E-02
  0.187363255E-02
  0.199900682E-02
  0.212414259E-02
  0.224828134E-02
  0.237073648E-02
  0.249092071E-02
  0.260837254E-02
  0.272278074E-02
  0.283400567E-02
  0.294209643E-02
  0.304730283E-02
  0.315008134E-02
  0.325109408E-02
  0.335120102E-02
  0.345144438E-02
  0.355302590E-02
  0.365727706E-02
  0.376562299E-02
  0.387954098E-02
  0.400051482E-02
  0.412998646E-02
  0.426930646E-02
  0.441968521E-02
  0.458214655E-02
  0.475748570E-02
  0.494623320E-02
  0.514862652E-02
  0.536459061E-02
  0.559372853E-02
  0.583532292E-02
  0.608834863E-02
  0.635149648E-02
  0.662320768E-02
  0.690171798E-02
  0.718511025E-02
  0.747137379E-02
  0.775846838E-02
  0.804439082E-02
  0.832724146E-02
  0.860528829E-02
  0.887702597E-02
  0.914122757E-02
  0.939698660E-02
  0.964374769E-02
  0.988132424E-02
  0.101099021E-01
  0.103300288E-01
  0.105425882E-01
  0.107487615E-01
  0.109499756E-01
  0.111478405E-01
  0.113440784E-01
  0.115404465E-01
  0.117386570E-01
  0.119402975E-01
  0.121467550E-01
  0.123591463E-01
  0.125782584E-01
  0.128045015E-01
  0.130378769E-01
  0.132779605E-01
  0.135239047E-01
  0.137744572E-01
  0.140279973E-01
  0.142825877E-01
  0.145360405E-01
  0.147859936E-01
  0.150299957E-01
  0.152655945E-01
</data>
</orbital>
<orbital 
 index="                        5" 
 atom_index="                        1" 
 species="Si" 
 Z="                       14" 
 position="   0.000000   0.000000   0.000000" 
 n="                        3" 
 l="                        2" 
 m="                       -2" 
 z="                        1" 
 P="true" 
>
<data>
  0.282152534E-02
  0.264607001E-02
  0.249120015E-02
  0.235820638E-02
  0.224815057E-02
  0.216186211E-02
  0.209993536E-02
  0.206272819E-02
  0.205036091E-02
  0.206271572E-02
  0.209943618E-02
  0.215992720E-02
  0.224335510E-02
  0.234864871E-02
  0.247450134E-02
  0.261937445E-02
  0.278150346E-02
  0.295890627E-02
  0.314939508E-02
  0.335059202E-02
  0.355994890E-02
  0.377477154E-02
  0.399224856E-02
  0.420948477E-02
  0.442353867E-02
  0.463146371E-02
  0.483035253E-02
  0.501738329E-02
  0.518986708E-02
  0.534529508E-02
  0.548138438E-02
  0.559612095E-02
  0.568779857E-02
  0.575505239E-02
  0.579688612E-02
  0.581269174E-02
  0.580226103E-02
  0.576578860E-02
  0.570386581E-02
  0.561746603E-02
  0.550792133E-02
  0.537689121E-02
  0.522632437E-02
  0.505841444E-02
  0.487555101E-02
  0.468026726E-02
  0.447518574E-02
  0.426296369E-02
  0.404623949E-02
  0.382758141E-02
  0.360944013E-02
  0.339410608E-02
  0.318367239E-02
  0.298000432E-02
  0.278471561E-02
  0.259915194E-02
  0.242438155E-02
  0.226119303E-02
  0.211009961E-02
  0.197134971E-02
  0.184494287E-02
  0.173065047E-02
  0.162804020E-02
  0.153650359E-02
  0.145528553E-02
  0.138351489E-02
  0.132023548E-02
  0.126443641E-02
  0.121508126E-02
  0.117113519E-02
  0.113158977E-02
  0.109548475E-02
  0.106192667E-02
  0.103010408E-02
  0.999299101E-03
  0.968895600E-03
  0.938383762E-03
  0.907361519E-03
  0.875532943E-03
  0.842703965E-03
  0.808775809E-03
  0.773736540E-03
  0.737651154E-03
  0.700650663E-03
  0.662920612E-03
  0.624689367E-03
  0.586216740E-03
  0.547783070E-03
  0.509679220E-03
  0.472197672E-03
  0.435624915E-03
  0.400235266E-03
  0.366286205E-03
  0.334015191E-03
  0.303638034E-03
  0.275348629E-03
  0.249319994E-03
  0.225706459E-03
  0.204646801E-03
  0.186268136E-03
  0.170690350E-03
  0.158030828E-03
  0.148409268E-03
  0.141952336E-03
  0.138797933E-03
  0.139098883E-03
  0.143025781E-03
  0.150768929E-03
  0.162539071E-03
  0.178566880E-03
  0.199101073E-03
  0.224405091E-03
  0.254752322E-03
  0.290419903E-03
  0.331681183E-03
  0.378796975E-03
  0.432005817E-03
  0.491513485E-03
  0.557482114E-03
  0.630019141E-03
  0.709166878E-03
  0.794892711E-03
  0.887080713E-03
  0.985525100E-03
  0.108992600E-02
  0.119988797E-02
  0.131492173E-02
  0.143444928E-02
  0.155781285E-02
  0.168428741E-02
  0.181309704E-02
  0.194343467E-02
  0.207448494E-02
  0.220544948E-02
  0.233557402E-02
  0.246417644E-02
  0.259067463E-02
  0.271461330E-02
  0.283568840E-02
  0.295376819E-02
  0.306890975E-02
  0.318137003E-02
  0.329161050E-02
  0.340029477E-02
  0.350827891E-02
  0.361659409E-02
  0.372642182E-02
  0.383906223E-02
  0.395589619E-02
  0.407834226E-02
  0.420780981E-02
  0.434564996E-02
  0.449310598E-02
  0.465126495E-02
  0.482101278E-02
  0.500299417E-02
  0.519757941E-02
  0.540483955E-02
  0.562453119E-02
  0.585609183E-02
  0.609864639E-02
  0.635102506E-02
  0.661179223E-02
  0.687928560E-02
  0.715166462E-02
  0.742696642E-02
  0.770316745E-02
  0.797824870E-02
  0.825026200E-02
  0.851739495E-02
  0.877803200E-02
  0.903080922E-02
  0.927466051E-02
  0.950885333E-02
  0.973301235E-02
  0.994712988E-02
  0.101515624E-01
  0.103470132E-01
  0.105345014E-01
  0.107153185E-01
  0.108909742E-01
  0.110631325E-01
  0.112335423E-01
  0.114039634E-01
  0.115760917E-01
  0.117514869E-01
  0.119315051E-01
  0.121172395E-01
  0.123094716E-01
  0.125086357E-01
  0.127147968E-01
  0.129276457E-01
  0.131465084E-01
  0.133703722E-01
  0.135979271E-01
  0.138276186E-01
  0.140577135E-01
  0.142863718E-01
  0.145117247E-01
  0.147319526E-01
</data>
</orbital>
<orbital 
 index="                        6" 
 atom_index="                        1" 
 species="Si" 
 Z="                       14" 
 position="   0.000000   0.000000   0.000000" 
 n="                        3" 
 l="                        2" 
 m="                       -1" 
 z="                        1" 
 P="true" 
>
<data>
  0.282152510E-02
  0.264606978E-02
  0.249119994E-02
  0.235820618E-02
  0.224815039E-02
  0.216186194E-02
  0.209993522E-02
  0.206272806E-02
  0.205036081E-02
  0.206271563E-02
  0.209943611E-02
  0.215992714E-02
  0.224335506E-02
  0.234864869E-02
  0.247450133E-02
  0.261937445E-02
  0.278150348E-02
  0.295890630E-02
  0.314939512E-02
  0.335059206E-02
  0.355994895E-02
  0.377477159E-02
  0.399224862E-02
  0.420948483E-02
  0.442353873E-02
  0.463146377E-02
  0.483035259E-02
  0.501738334E-02
  0.518986712E-02
  0.534529512E-02
  0.548138441E-02
  0.559612097E-02
  0.568779858E-02
  0.575505239E-02
  0.579688611E-02
  0.581269171E-02
  0.580226100E-02
  0.576578855E-02
  0.570386575E-02
  0.561746596E-02
  0.550792125E-02
  0.537689111E-02
  0.522632426E-02
  0.505841433E-02
  0.487555089E-02
  0.468026714E-02
  0.447518560E-02
  0.426296356E-02
  0.404623936E-02
  0.382758127E-02
  0.360944000E-02
  0.339410595E-02
  0.318367225E-02
  0.298000419E-02
  0.278471549E-02
  0.259915181E-02
  0.242438143E-02
  0.226119292E-02
  0.211009951E-02
  0.197134962E-02
  0.184494278E-02
  0.173065038E-02
  0.162804012E-02
  0.153650352E-02
  0.145528547E-02
  0.138351484E-02
  0.132023543E-02
  0.126443637E-02
  0.121508122E-02
  0.117113515E-02
  0.113158974E-02
  0.109548472E-02
  0.106192665E-02
  0.103010406E-02
  0.999299084E-03
  0.968895586E-03
  0.938383749E-03
  0.907361509E-03
  0.875532934E-03
  0.842703958E-03
  0.808775803E-03
  0.773736535E-03
  0.737651150E-03
  0.700650660E-03
  0.662920610E-03
  0.624689365E-03
  0.586216738E-03
  0.547783068E-03
  0.509679219E-03
  0.472197671E-03
  0.435624914E-03
  0.400235265E-03
  0.366286204E-03
  0.334015189E-03
  0.303638033E-03
  0.275348626E-03
  0.249319991E-03
  0.225706456E-03
  0.204646797E-03
  0.186268132E-03
  0.170690344E-03
  0.158030821E-03
  0.148409260E-03
  0.141952326E-03
  0.138797922E-03
  0.139098869E-03
  0.143025765E-03
  0.150768911E-03
  0.162539049E-03
  0.178566855E-03
  0.199101044E-03
  0.224405058E-03
  0.254752285E-03
  0.290419862E-03
  0.331681137E-03
  0.378796924E-03
  0.432005761E-03
  0.491513423E-03
  0.557482046E-03
  0.630019068E-03
  0.709166800E-03
  0.794892628E-03
  0.887080625E-03
  0.985525008E-03
  0.108992590E-02
  0.119988787E-02
  0.131492163E-02
  0.143444918E-02
  0.155781275E-02
  0.168428730E-02
  0.181309693E-02
  0.194343457E-02
  0.207448484E-02
  0.220544938E-02
  0.233557393E-02
  0.246417635E-02
  0.259067455E-02
  0.271461322E-02
  0.283568833E-02
  0.295376812E-02
  0.306890969E-02
  0.318136998E-02
  0.329161046E-02
  0.340029472E-02
  0.350827887E-02
  0.361659404E-02
  0.372642177E-02
  0.383906217E-02
  0.395589613E-02
  0.407834219E-02
  0.420780973E-02
  0.434564988E-02
  0.449310588E-02
  0.465126484E-02
  0.482101266E-02
  0.500299403E-02
  0.519757926E-02
  0.540483939E-02
  0.562453102E-02
  0.585609164E-02
  0.609864619E-02
  0.635102486E-02
  0.661179201E-02
  0.687928538E-02
  0.715166440E-02
  0.742696620E-02
  0.770316723E-02
  0.797824848E-02
  0.825026179E-02
  0.851739474E-02
  0.877803179E-02
  0.903080902E-02
  0.927466031E-02
  0.950885314E-02
  0.973301217E-02
  0.994712970E-02
  0.101515622E-01
  0.103470130E-01
  0.105345012E-01
  0.107153184E-01
  0.108909740E-01
  0.110631323E-01
  0.112335421E-01
  0.114039632E-01
  0.115760915E-01
  0.117514867E-01
  0.119315048E-01
  0.121172392E-01
  0.123094713E-01
  0.125086354E-01
  0.127147965E-01
  0.129276454E-01
  0.131465080E-01
  0.133703719E-01
  0.135979267E-01
  0.138276183E-01
  0.140577132E-01
  0.142863715E-01
  0.145117243E-01
  0.147319523E-01
</data>
</orbital>
<orbital 
 index="                        7" 
 atom_index="                        1" 
 species="Si" 
 Z="                       14" 
 position="   0.000000   0.000000   0.000000" 
 n="                        3" 
 l="                        2" 
 m="                        0" 
 z="                        1" 
 P="true" 
>
<data>
  0.516911054E-03
  0.478589468E-03
  0.445462309E-03
  0.417485403E-03
  0.394581175E-03
  0.376640495E-03
  0.363524173E-03
  0.355064104E-03
  0.351064138E-03
  0.351300732E-03
  0.355523486E-03
  0.363455695E-03
  0.374794952E-03
  0.389214028E-03
  0.406362064E-03
  0.425866200E-03
  0.447333723E-03
  0.470354802E-03
  0.494505848E-03
  0.519353495E-03
  0.544459190E-03
  0.569384336E-03
  0.593695884E-03
  0.616972284E-03
  0.638809623E-03
  0.658827813E-03
  0.676676637E-03
  0.692041474E-03
  0.704648522E-03
  0.714269354E-03
  0.720724628E-03
  0.723886848E-03
  0.723682049E-03
  0.720090352E-03
  0.713145349E-03
  0.702932335E-03
  0.689585424E-03
  0.673283648E-03
  0.654246141E-03
  0.632726568E-03
  0.609006957E-03
  0.583391128E-03
  0.556197907E-03
  0.527754307E-03
  0.498388894E-03
  0.468425459E-03
  0.438177201E-03
  0.407941522E-03
  0.377995528E-03
  0.348592341E-03
  0.319958226E-03
  0.292290576E-03
  0.265756719E-03
  0.240493525E-03
  0.216607733E-03
  0.194176948E-03
  0.173251152E-03
  0.153854752E-03
  0.135988915E-03
  0.119634195E-03
  0.104753297E-03
  0.912939310E-04
  0.791916024E-04
  0.683723520E-04
  0.587553228E-04
  0.502551324E-04
  0.427840129E-04
  0.362536951E-04
  0.305770260E-04
  0.256693195E-04
  0.214494459E-04
  0.178406765E-04
  0.147713017E-04
  0.121750470E-04
  0.999131362E-05
  0.816527494E-05
  0.664784690E-05
  0.539557669E-05
  0.437046393E-05
  0.353974639E-05
  0.287567338E-05
  0.235529006E-05
  0.196025346E-05
  0.167670008E-05
  0.149520441E-05
  0.141072958E-05
  0.142285202E-05
  0.153594585E-05
  0.175957101E-05
  0.210899092E-05
  0.260584393E-05
  0.327897713E-05
  0.416545278E-05
  0.531170445E-05
  0.677489695E-05
  0.862441069E-05
  0.109434833E-04
  0.138309649E-04
  0.174031538E-04
  0.217956665E-04
  0.271652819E-04
  0.336916857E-04
  0.415790310E-04
  0.510572137E-04
  0.623827533E-04
  0.758391704E-04
  0.917366675E-04
  0.110411142E-03
  0.132222215E-03
  0.157550295E-03
  0.186792533E-03
  0.220357615E-03
  0.258659340E-03
  0.302109018E-03
  0.351106724E-03
  0.406031550E-03
  0.467231026E-03
  0.535009958E-03
  0.609619044E-03
  0.691243463E-03
  0.779992279E-03
  0.875888651E-03
  0.978861692E-03