 vasp.5.4.1 05Feb16 (build Dec 10 2020 20:20:43) complex                         
 executed on    gnu-9.3.0-openmpi date 2020.12.11  11:26:24
 running on   20 total cores
 distrk:  each k-point on   20 cores,    1 groups
 distr:  one band on NCORES_PER_BAND=   5 cores,    4 groups


--------------------------------------------------------------------------------------------------------


 INCAR:
 POTCAR:    PAW_PBE C 08Apr2002                   
 POTCAR:    PAW_PBE C 08Apr2002                   
   SHA256 =  253f7b50bb8d59471dbedb8285d89021f4a42ed1a2c5d38a03a736e69125dd95 C/
   COPYR  = (c) Copyright 08Apr2002 Georg Kresse                                
   COPYR  = This file is part of the software VASP. Any use, copying, and all ot
   COPYR  = If you do not have a valid VASP license, you may not use, copy or di
   VRHFIN =C: s2p2                                                              
   LEXCH  = PE                                                                  
   EATOM  =   147.1560 eV,   10.8157 Ry                                         
                                                                                
   TITEL  = PAW_PBE C 08Apr2002                                                 
   LULTRA =        F    use ultrasoft PP ?                                      
   IUNSCR =        1    unscreen: 0-lin 1-nonlin 2-no                           
   RPACOR =    1.200    partial core radius                                     
   POMASS =   12.011; ZVAL   =    4.000    mass and valenz                      
   RCORE  =    1.500    outmost cutoff radius                                   
   RWIGS  =    1.630; RWIGS  =    0.863    wigner-seitz radius (au A)           
   ENMAX  =  400.000; ENMIN  =  300.000 eV                                      
   ICORE  =        2    local potential                                         
   LCOR   =        T    correct aug charges                                     
   LPAW   =        T    paw PP                                                  
   EAUG   =  644.873                                                            
   DEXC   =    0.000                                                            
   RMAX   =    1.529    core radius for proj-oper                               
   RAUG   =    1.300    factor for augmentation sphere                          
   RDEP   =    1.501    radius for radial grids                                 
   RDEPT  =    1.300    core radius for aug-charge                              
                                                                                
   Atomic configuration                                                         
    4 entries                                                                   
     n  l   j            E        occ.                                          
     1  0  0.50      -273.3789   2.0000                                         
     2  0  0.50       -13.7508   2.0000                                         
     2  1  0.50        -5.2854   2.0000                                         
     3  2  1.50        -5.4423   0.0000                                         
   Description                                                                  
     l       E           TYP  RCUT    TYP  RCUT                                 
     0    -13.7508458     23  1.200                                             
     0     -8.2022199     23  1.200                                             
     1     -5.2854383     23  1.500                                             
     1     34.0145650     23  1.500                                             
     2     -5.4423304      7  1.500                                             
  local pseudopotential read in
  partial core-charges read in
  partial kinetic energy density read in
  atomic valenz-charges read in
  non local Contribution for L=           0  read in
    real space projection operators read in
  non local Contribution for L=           0  read in
    real space projection operators read in
  non local Contribution for L=           1  read in
    real space projection operators read in
  non local Contribution for L=           1  read in
    real space projection operators read in
    PAW grid and wavefunctions read in

   number of l-projection  operators is LMAX  =           4
   number of lm-projection operators is LMMAX =           8

  PAW_PBE C 08Apr2002                   :
 energy of atom  1       EATOM= -147.1560
 kinetic energy error for atom=    0.0066 (will be added to EATOM!!)


 POSCAR: sisl output                             
  positions in cartesian coordinates
  No initial velocities read in
 exchange correlation table for  LEXCH =        8
   RHO(1)=    0.500       N(1)  =     2000
   RHO(2)=  100.500       N(2)  =     4000



--------------------------------------------------------------------------------------------------------


 ion  position               nearest neighbor table
   1  0.000  0.000  0.000-   2 1.55   2 1.55   2 1.55   2 1.55
   2  0.250  0.250  0.250-   1 1.55   1 1.55   1 1.55   1 1.55

  LATTYP: Found a face centered cubic cell.
 ALAT       =     3.5700000000
  
  Lattice vectors:
  
 A1 = (   0.0000000000,   1.7850000000,   1.7850000000)
 A2 = (   1.7850000000,   0.0000000000,   1.7850000000)
 A3 = (   1.7850000000,   1.7850000000,   0.0000000000)


Analysis of symmetry for initial positions (statically):
=====================================================================
 Subroutine PRICEL returns:
 Original cell was already a primitive cell.
 

 Routine SETGRP: Setting up the symmetry group for a 
 face centered cubic supercell.


 Subroutine GETGRP returns: Found 48 space group operations
 (whereof 24 operations were pure point group operations)
 out of a pool of 48 trial point group operations.


The static configuration has the point symmetry T_d .
 The point group associated with its full space group is O_h .


Analysis of symmetry for dynamics (positions and initial velocities):
=====================================================================
 Subroutine PRICEL returns:
 Original cell was already a primitive cell.
 

 Routine SETGRP: Setting up the symmetry group for a 
 face centered cubic supercell.


 Subroutine GETGRP returns: Found 48 space group operations
 (whereof 24 operations were pure point group operations)
 out of a pool of 48 trial point group operations.


The dynamic configuration has the point symmetry T_d .
 The point group associated with its full space group is O_h .


Analysis of constrained symmetry for selective dynamics:
=====================================================================
 Subroutine PRICEL returns:
 Original cell was already a primitive cell.
 

 Routine SETGRP: Setting up the symmetry group for a 
 face centered cubic supercell.


 Subroutine GETGRP returns: Found 48 space group operations
 (whereof 24 operations were pure point group operations)
 out of a pool of 48 trial point group operations.


The constrained configuration has the point symmetry T_d .
 The point group associated with its full space group is O_h .


 Subroutine INISYM returns: Found 48 space group operations
 (whereof 24 operations are pure point group operations),
 and found     1 'primitive' translations



 KPOINTS: 4x4x4            Comment                

Automatic generation of k-mesh.
Space group operators:
 irot       det(A)        alpha          n_x          n_y          n_z        tau_x        tau_y        tau_z
    1     1.000000     0.000000     1.000000     0.000000     0.000000     0.000000     0.000000     0.000000
    2     1.000000   120.000000    -0.577350    -0.577350    -0.577350     0.000000     0.000000     0.000000
    3     1.000000   120.000000     0.577350     0.577350     0.577350     0.000000     0.000000     0.000000
    4    -1.000000    90.000000     0.000000     0.000000    -1.000000     0.000000     0.000000     0.000000
    5    -1.000000   180.000000    -0.000000    -0.707107    -0.707107     0.000000     0.000000     0.000000
    6    -1.000000    90.000000    -0.000000     1.000000     0.000000     0.000000     0.000000     0.000000
    7     1.000000   180.000000    -0.000000     0.000000    -1.000000     0.000000     0.000000     0.000000
    8     1.000000   120.000000    -0.577350     0.577350     0.577350     0.000000     0.000000     0.000000
    9     1.000000   120.000000    -0.577350     0.577350    -0.577350     0.000000     0.000000     0.000000
   10    -1.000000    90.000000     0.000000     0.000000     1.000000     0.000000     0.000000     0.000000
   11    -1.000000    90.000000    -1.000000     0.000000     0.000000     0.000000     0.000000     0.000000
   12    -1.000000   180.000000     0.707107     0.000000     0.707107     0.000000     0.000000     0.000000
   13     1.000000   120.000000     0.577350    -0.577350     0.577350     0.000000     0.000000     0.000000
   14     1.000000   120.000000    -0.577350    -0.577350     0.577350     0.000000     0.000000     0.000000
   15     1.000000   179.999999     1.000000     0.000000     0.000000     0.000000     0.000000     0.000000
   16    -1.000000    90.000000     0.000000    -1.000000    -0.000000     0.000000     0.000000     0.000000
   17    -1.000000   180.000000     0.707107     0.707107    -0.000000     0.000000     0.000000     0.000000
   18    -1.000000    90.000000     1.000000     0.000000     0.000000     0.000000     0.000000     0.000000
   19     1.000000   120.000000     0.577350    -0.577350    -0.577350     0.000000     0.000000     0.000000
   20     1.000000   180.000000    -0.000000    -1.000000     0.000000     0.000000     0.000000     0.000000
   21     1.000000   120.000000     0.577350     0.577350    -0.577350     0.000000     0.000000     0.000000
   22    -1.000000   180.000000    -0.000000     0.707107    -0.707107     0.000000     0.000000     0.000000
   23    -1.000000   180.000000     0.707107    -0.707107     0.000000     0.000000     0.000000     0.000000
   24    -1.000000   180.000000     0.707107     0.000000    -0.707107     0.000000     0.000000     0.000000
   25    -1.000000     0.000000     1.000000     0.000000     0.000000     0.250000     0.250000     0.250000
   26    -1.000000   120.000000    -0.577350    -0.577350    -0.577350     0.250000     0.250000     0.250000
   27    -1.000000   120.000000     0.577350     0.577350     0.577350     0.250000     0.250000     0.250000
   28     1.000000    90.000000     0.000000     0.000000    -1.000000     0.250000     0.250000     0.250000
   29     1.000000   180.000000    -0.000000    -0.707107    -0.707107     0.250000     0.250000     0.250000
   30     1.000000    90.000000    -0.000000     1.000000     0.000000     0.250000     0.250000     0.250000
   31    -1.000000   180.000000    -0.000000     0.000000    -1.000000     0.250000     0.250000     0.250000
   32    -1.000000   120.000000    -0.577350     0.577350     0.577350     0.250000     0.250000     0.250000
   33    -1.000000   120.000000    -0.577350     0.577350    -0.577350     0.250000     0.250000     0.250000
   34     1.000000    90.000000     0.000000     0.000000     1.000000     0.250000     0.250000     0.250000
   35     1.000000    90.000000    -1.000000     0.000000     0.000000     0.250000     0.250000     0.250000
   36     1.000000   180.000000     0.707107     0.000000     0.707107     0.250000     0.250000     0.250000
   37    -1.000000   120.000000     0.577350    -0.577350     0.577350     0.250000     0.250000     0.250000
   38    -1.000000   120.000000    -0.577350    -0.577350     0.577350     0.250000     0.250000     0.250000
   39    -1.000000   179.999999     1.000000     0.000000     0.000000     0.250000     0.250000     0.250000
   40     1.000000    90.000000     0.000000    -1.000000    -0.000000     0.250000     0.250000     0.250000
   41     1.000000   180.000000     0.707107     0.707107    -0.000000     0.250000     0.250000     0.250000
   42     1.000000    90.000000     1.000000     0.000000     0.000000     0.250000     0.250000     0.250000
   43    -1.000000   120.000000     0.577350    -0.577350    -0.577350     0.250000     0.250000     0.250000
   44    -1.000000   180.000000    -0.000000    -1.000000     0.000000     0.250000     0.250000     0.250000
   45    -1.000000   120.000000     0.577350     0.577350    -0.577350     0.250000     0.250000     0.250000
   46     1.000000   180.000000    -0.000000     0.707107    -0.707107     0.250000     0.250000     0.250000
   47     1.000000   180.000000     0.707107    -0.707107     0.000000     0.250000     0.250000     0.250000
   48     1.000000   180.000000     0.707107     0.000000    -0.707107     0.250000     0.250000     0.250000
 
 Subroutine IBZKPT returns following result:
 ===========================================
 
 Found     84 irreducible k-points:
 
 Following reciprocal coordinates:
            Coordinates               Weight
  0.000000  0.000000  0.000000      1.000000
  0.076923  0.000000  0.000000      8.000000
  0.153846  0.000000  0.000000      8.000000
  0.230769  0.000000  0.000000      8.000000
  0.307692  0.000000  0.000000      8.000000
  0.384615  0.000000  0.000000      8.000000
  0.461538  0.000000  0.000000      8.000000
  0.076923  0.076923  0.000000      6.000000
  0.153846  0.076923  0.000000     24.000000
  0.230769  0.076923  0.000000     24.000000
  0.307692  0.076923  0.000000     24.000000
  0.384615  0.076923  0.000000     24.000000
  0.461538  0.076923  0.000000     24.000000
 -0.461538  0.076923  0.000000     24.000000
 -0.384615  0.076923  0.000000     24.000000
 -0.307692  0.076923  0.000000     24.000000
 -0.230769  0.076923  0.000000     24.000000
 -0.153846  0.076923  0.000000     24.000000
 -0.076923  0.076923  0.000000     12.000000
  0.153846  0.153846  0.000000      6.000000
  0.230769  0.153846  0.000000     24.000000
  0.307692  0.153846  0.000000     24.000000
  0.384615  0.153846  0.000000     24.000000
  0.461538  0.153846  0.000000     24.000000
 -0.461538  0.153846  0.000000     24.000000
 -0.384615  0.153846  0.000000     24.000000
 -0.307692  0.153846  0.000000     24.000000
 -0.230769  0.153846  0.000000     24.000000
 -0.153846  0.153846  0.000000     12.000000
  0.230769  0.230769  0.000000      6.000000
  0.307692  0.230769  0.000000     24.000000
  0.384615  0.230769  0.000000     24.000000
  0.461538  0.230769  0.000000     24.000000
 -0.461538  0.230769  0.000000     24.000000
 -0.384615  0.230769  0.000000     24.000000
 -0.307692  0.230769  0.000000     24.000000
 -0.230769  0.230769  0.000000     12.000000
  0.307692  0.307692  0.000000      6.000000
  0.384615  0.307692  0.000000     24.000000
  0.461538  0.307692  0.000000     24.000000
 -0.461538  0.307692  0.000000     24.000000
 -0.384615  0.307692  0.000000     24.000000
 -0.307692  0.307692  0.000000     12.000000
  0.384615  0.384615  0.000000      6.000000
  0.461538  0.384615  0.000000     24.000000
 -0.461538  0.384615  0.000000     24.000000
 -0.384615  0.384615  0.000000     12.000000
  0.461538  0.461538  0.000000      6.000000
 -0.461538  0.461538  0.000000     12.000000
  0.230769  0.153846  0.076923     24.000000
  0.307692  0.153846  0.076923     48.000000
  0.384615  0.153846  0.076923     48.000000
  0.461538  0.153846  0.076923     48.000000
 -0.461538  0.153846  0.076923     48.000000
  0.307692  0.230769  0.076923     24.000000
  0.384615  0.230769  0.076923     48.000000
  0.461538  0.230769  0.076923     48.000000
 -0.461538  0.230769  0.076923     48.000000
 -0.384615  0.230769  0.076923     48.000000
 -0.307692  0.230769  0.076923     48.000000
 -0.230769  0.230769  0.076923     48.000000
 -0.153846  0.230769  0.076923     24.000000
  0.384615  0.307692  0.076923     24.000000
  0.461538  0.307692  0.076923     48.000000
 -0.461538  0.307692  0.076923     48.000000
 -0.384615  0.307692  0.076923     48.000000
 -0.307692  0.307692  0.076923     48.000000
 -0.230769  0.307692  0.076923     24.000000
  0.461538  0.384615  0.076923     24.000000
 -0.461538  0.384615  0.076923     48.000000
 -0.384615  0.384615  0.076923     48.000000
 -0.307692  0.384615  0.076923     24.000000
 -0.461538  0.461538  0.076923     24.000000
 -0.384615  0.461538  0.076923     24.000000
  0.461538  0.307692  0.153846     24.000000
 -0.461538  0.307692  0.153846     48.000000
 -0.384615  0.307692  0.153846     48.000000
 -0.461538  0.384615  0.153846     24.000000
 -0.384615  0.384615  0.153846     48.000000
 -0.307692  0.384615  0.153846     48.000000
 -0.230769  0.384615  0.153846     24.000000
 -0.384615  0.461538  0.153846     24.000000
 -0.307692  0.461538  0.153846     24.000000
 -0.307692  0.461538  0.230769     24.000000
 
 Following cartesian coordinates:
            Coordinates               Weight
  0.000000  0.000000  0.000000      1.000000
 -0.021547  0.021547  0.021547      8.000000
 -0.043094  0.043094  0.043094      8.000000
 -0.064641  0.064641  0.064641      8.000000
 -0.086188  0.086188  0.086188      8.000000
 -0.107735  0.107735  0.107735      8.000000
 -0.129282  0.129282  0.129282      8.000000
  0.000000  0.000000  0.043094      6.000000
 -0.021547  0.021547  0.064641     24.000000
 -0.043094  0.043094  0.086188     24.000000
 -0.064641  0.064641  0.107735     24.000000
 -0.086188  0.086188  0.129282     24.000000
 -0.107735  0.107735  0.150830     24.000000
  0.150830 -0.150830 -0.107735     24.000000
  0.129282 -0.129282 -0.086188     24.000000
  0.107735 -0.107735 -0.064641     24.000000
  0.086188 -0.086188 -0.043094     24.000000
  0.064641 -0.064641 -0.021547     24.000000
  0.043094 -0.043094  0.000000     12.000000
  0.000000  0.000000  0.086188      6.000000
 -0.021547  0.021547  0.107735     24.000000
 -0.043094  0.043094  0.129282     24.000000
 -0.064641  0.064641  0.150830     24.000000
 -0.086188  0.086188  0.172377     24.000000
  0.172377 -0.172377 -0.086188     24.000000
  0.150830 -0.150830 -0.064641     24.000000
  0.129282 -0.129282 -0.043094     24.000000
  0.107735 -0.107735 -0.021547     24.000000
  0.086188 -0.086188  0.000000     12.000000
  0.000000  0.000000  0.129282      6.000000
 -0.021547  0.021547  0.150830     24.000000
 -0.043094  0.043094  0.172377     24.000000
 -0.064641  0.064641  0.193924     24.000000
  0.193924 -0.193924 -0.064641     24.000000
  0.172377 -0.172377 -0.043094     24.000000
  0.150830 -0.150830 -0.021547     24.000000
  0.129282 -0.129282  0.000000     12.000000
  0.000000  0.000000  0.172377      6.000000
 -0.021547  0.021547  0.193924     24.000000
 -0.043094  0.043094  0.215471     24.000000
  0.215471 -0.215471 -0.043094     24.000000
  0.193924 -0.193924 -0.021547     24.000000
  0.172377 -0.172377  0.000000     12.000000
  0.000000  0.000000  0.215471      6.000000
 -0.021547  0.021547  0.237018     24.000000
  0.237018 -0.237018 -0.021547     24.000000
  0.215471 -0.215471  0.000000     12.000000
  0.000000  0.000000  0.258565      6.000000
  0.258565 -0.258565  0.000000     12.000000
  0.000000  0.043094  0.086188     24.000000
 -0.021547  0.064641  0.107735     48.000000
 -0.043094  0.086188  0.129282     48.000000
 -0.064641  0.107735  0.150830     48.000000
  0.193924 -0.150830 -0.107735     48.000000
  0.000000  0.043094  0.129282     24.000000
 -0.021547  0.064641  0.150830     48.000000
 -0.043094  0.086188  0.172377     48.000000
  0.215471 -0.172377 -0.086188     48.000000
  0.193924 -0.150830 -0.064641     48.000000
  0.172377 -0.129282 -0.043094     48.000000
  0.150830 -0.107735 -0.021547     48.000000
  0.129282 -0.086188  0.000000     24.000000
 -0.000000  0.043094  0.172377     24.000000
 -0.021547  0.064641  0.193924     48.000000
  0.237018 -0.193924 -0.064641     48.000000
  0.215471 -0.172377 -0.043094     48.000000
  0.193924 -0.150830 -0.021547     48.000000
  0.172377 -0.129282  0.000000     24.000000
  0.000000  0.043094  0.215471     24.000000
  0.258565 -0.215471 -0.043094     48.000000
  0.237018 -0.193924 -0.021547     48.000000
  0.215471 -0.172377  0.000000     24.000000
  0.280112 -0.237018 -0.021547     24.000000
  0.258565 -0.215471  0.000000     24.000000
  0.000000  0.086188  0.172377     24.000000
  0.258565 -0.172377 -0.086188     48.000000
  0.237018 -0.150830 -0.064641     48.000000
  0.280112 -0.193924 -0.064641     24.000000
  0.258565 -0.172377 -0.043094     48.000000
  0.237018 -0.150830 -0.021547     48.000000
  0.215471 -0.129282  0.000000     24.000000
  0.280112 -0.193924 -0.021547     24.000000
  0.258565 -0.172377  0.000000     24.000000
  0.280112 -0.150830 -0.021547     24.000000
 


--------------------------------------------------------------------------------------------------------




 Dimension of arrays:
   k-points           NKPTS =     84   k-points in BZ     NKDIM =     84   number of bands    NBANDS=      8
   number of dos      NEDOS =    301   number of ions     NIONS =      2
   non local maximal  LDIM  =      4   non local SUM 2l+1 LMDIM =      8
   total plane-waves  NPLWV =   2744
   max r-space proj   IRMAX =      1   max aug-charges    IRDMAX=   3046
   dimension x,y,z NGX =    14 NGY =   14 NGZ =   14
   dimension x,y,z NGXF=    28 NGYF=   28 NGZF=   28
   support grid    NGXF=    28 NGYF=   28 NGZF=   28
   ions per type =               2
 NGX,Y,Z   is equivalent  to a cutoff of   9.22,  9.22,  9.22 a.u.
 NGXF,Y,Z  is equivalent  to a cutoff of  18.44, 18.44, 18.44 a.u.


 I would recommend the setting:
   dimension x,y,z NGX =    14 NGY =   14 NGZ =   14
 SYSTEM =  SCF                                     
 POSCAR =  sisl output                             

 Startparameter for this run:
   NWRITE =      2    write-flag & timer
   PREC   = n         normal or accurate (medium, high low for compatibility)
   ISTART =      0    job   : 0-new  1-cont  2-samecut
   ICHARG =      2    charge: 1-file 2-atom 10-const
   ISPIN  =      1    spin polarized calculation?
   LNONCOLLINEAR =      F non collinear calculations
   LSORBIT =      F    spin-orbit coupling
   INIWAV =      1    electr: 0-lowe 1-rand  2-diag
   LASPH  =      F    aspherical Exc in radial PAW
   METAGGA=      F    non-selfconsistent MetaGGA calc.

 Electronic Relaxation 1
   ENCUT  =  550.0 eV  40.42 Ry    6.36 a.u.   4.83  4.83  4.83*2*pi/ulx,y,z
   ENINI  =  550.0     initial cutoff
   ENAUG  =  644.9 eV  augmentation charge cutoff
   NELM   =     60;   NELMIN=  2; NELMDL= -5     # of ELM steps 
   EDIFF  = 0.1E-05   stopping-criterion for ELM
   LREAL  =      F    real-space projection
   NLSPLINE    = F    spline interpolate recip. space projectors
   LCOMPAT=      F    compatible to vasp.4.4
   GGA_COMPAT  = T    GGA compatible to vasp.4.4-vasp.4.6
   LMAXPAW     = -100 max onsite density
   LMAXMIX     =    2 max onsite mixed and CHGCAR
   VOSKOWN=      0    Vosko Wilk Nusair interpolation
   ROPT   =    0.00000
 Ionic relaxation
   EDIFFG = -.1E-02   stopping-criterion for IOM
   NSW    =      0    number of steps for IOM
   NBLOCK =      1;   KBLOCK =      1    inner block; outer block 
   IBRION =     -1    ionic relax: 0-MD 1-quasi-New 2-CG
   NFREE  =      1    steps in history (QN), initial steepest desc. (CG)
   ISIF   =      3    stress and relaxation
   IWAVPR =     10    prediction:  0-non 1-charg 2-wave 3-comb
   ISYM   =      2    0-nonsym 1-usesym 2-fastsym
   LCORR  =      T    Harris-Foulkes like correction to forces

   POTIM  = 0.1000    time-step for ionic-motion
   TEIN   =    0.0    initial temperature
   TEBEG  =    0.0;   TEEND  =   0.0 temperature during run
   SMASS  =  -3.00    Nose mass-parameter (am)
   estimated Nose-frequenzy (Omega)   =  0.10E-29 period in steps =****** mass=  -0.146E-27a.u.
   SCALEE = 1.0000    scale energy and forces
   NPACO  =    256;   APACO  = 16.0  distance and # of slots for P.C.
   PSTRESS=    0.0 pullay stress

  Mass of Ions in am
   POMASS =  12.01
  Ionic Valenz
   ZVAL   =   4.00
  Atomic Wigner-Seitz radii
   RWIGS  =  -1.00
  virtual crystal weights 
   VCA    =   1.00
   NELECT =       8.0000    total number of electrons
   NUPDOWN=      -1.0000    fix difference up-down

 DOS related values:
   EMIN   =  10.00;   EMAX   =-10.00  energy-range for DOS
   EFERMI =   0.00
   ISMEAR =     0;   SIGMA  =   0.03  broadening in eV -4-tet -1-fermi 0-gaus

 Electronic relaxation 2 (details)
   IALGO  =     38    algorithm
   LDIAG  =      T    sub-space diagonalisation (order eigenvalues)
   LSUBROT=      F    optimize rotation matrix (better conditioning)
   TURBO    =      0    0=normal 1=particle mesh
   IRESTART =      0    0=no restart 2=restart with 2 vectors
   NREBOOT  =      0    no. of reboots
   NMIN     =      0    reboot dimension
   EREF     =   0.00    reference energy to select bands
   IMIX   =      4    mixing-type and parameters
     AMIX     =   0.40;   BMIX     =  1.00
     AMIX_MAG =   1.60;   BMIX_MAG =  1.00
     AMIN     =   0.10
     WC   =   100.;   INIMIX=   1;  MIXPRE=   1;  MAXMIX= -45

 Intra band minimization:
   WEIMIN = 0.0000     energy-eigenvalue tresh-hold
   EBREAK =  0.31E-07  absolut break condition
   DEPER  =   0.30     relativ break condition  

   TIME   =   0.40     timestep for ELM

  volume/ion in A,a.u.               =       5.69        38.38
  Fermi-wavevector in a.u.,A,eV,Ry     =   1.455872  2.751200 28.838420  2.119564
  Thomas-Fermi vector in A             =   2.572856

 Write flags
   LWAVE  =      F    write WAVECAR
   LCHARG =      F    write CHGCAR
   LVTOT  =      F    write LOCPOT, total local potential
   LVHAR  =      F    write LOCPOT, Hartree potential only
   LELF   =      F    write electronic localiz. function (ELF)
   LORBIT =      0    0 simple, 1 ext, 2 COOP (PROOUT)


 Dipole corrections
   LMONO  =      F    monopole corrections only (constant potential shift)
   LDIPOL =      F    correct potential (dipole corrections)
   IDIPOL =      0    1-x, 2-y, 3-z, 4-all directions 
   EPSILON=  1.0000000 bulk dielectric constant

 Exchange correlation treatment:
   GGA     =    --    GGA type
   LEXCH   =     8    internal setting for exchange type
   VOSKOWN=      0    Vosko Wilk Nusair interpolation
   LHFCALC =     F    Hartree Fock is set to
   LHFONE  =     F    Hartree Fock one center treatment
   AEXX    =    0.0000 exact exchange contribution

 Linear response parameters
   LEPSILON=     F    determine dielectric tensor
   LRPA    =     F    only Hartree local field effects (RPA)
   LNABLA  =     F    use nabla operator in PAW spheres
   LVEL    =     F    velocity operator in full k-point grid
   LINTERFAST=   F  fast interpolation
   KINTER  =     0    interpolate to denser k-point grid
   CSHIFT  =0.1000    complex shift for real part using Kramers Kronig
   OMEGAMAX=  -1.0    maximum frequency
   DEG_THRESHOLD= 0.2000000E-02 threshold for treating states as degnerate
   RTIME   =    0.100 relaxation time in fs

 Orbital magnetization related:
   ORBITALMAG=     F  switch on orbital magnetization
   LCHIMAG   =     F  perturbation theory with respect to B field
   DQ        =  0.001000  dq finite difference perturbation B field



--------------------------------------------------------------------------------------------------------


 Static calculation
 charge density and potential will be updated during run
 non-spin polarized calculation
 Variant of blocked Davidson
 Davidson routine will perform the subspace rotation
 perform sub-space diagonalisation
    after iterative eigenvector-optimisation
 modified Broyden-mixing scheme, WC =      100.0
 initial mixing is a Kerker type mixing with AMIX =  0.4000 and BMIX =      1.0000
 Hartree-type preconditioning will be used
 using additional bands            4
 reciprocal scheme for non local part
 use partial core corrections
 calculate Harris-corrections to forces   (improved forces if not selfconsistent)
 use gradient corrections 
 use of overlap-Matrix (Vanderbilt PP)
 Gauss-broadening in eV      SIGMA  =   0.03


--------------------------------------------------------------------------------------------------------


  energy-cutoff  :      550.00
  volume of cell :       11.37
      direct lattice vectors                 reciprocal lattice vectors
     0.000000000  1.785000000  1.785000000    -0.280112045  0.280112045  0.280112045
     1.785000000  0.000000000  1.785000000     0.280112045 -0.280112045  0.280112045
     1.785000000  1.785000000  0.000000000     0.280112045  0.280112045 -0.280112045

  length of vectors
     2.524371209  2.524371209  2.524371209     0.485168293  0.485168293  0.485168293



 k-points in units of 2pi/SCALE and weight: 4x4x4            Comment                
   0.00000000  0.00000000  0.00000000       0.000
  -0.02154708  0.02154708  0.02154708       0.004
  -0.04309416  0.04309416  0.04309416       0.004
  -0.06464124  0.06464124  0.06464124       0.004
  -0.08618832  0.08618832  0.08618832       0.004
  -0.10773540  0.10773540  0.10773540       0.004
  -0.12928248  0.12928248  0.12928248       0.004
   0.00000000  0.00000000  0.04309416       0.003
  -0.02154708  0.02154708  0.06464124       0.011
  -0.04309416  0.04309416  0.08618832       0.011
  -0.06464124  0.06464124  0.10773540       0.011
  -0.08618832  0.08618832  0.12928248       0.011
  -0.10773540  0.10773540  0.15082956       0.011
   0.15082956 -0.15082956 -0.10773540       0.011
   0.12928248 -0.12928248 -0.08618832       0.011
   0.10773540 -0.10773540 -0.06464124       0.011
   0.08618832 -0.08618832 -0.04309416       0.011
   0.06464124 -0.06464124 -0.02154708       0.011
   0.04309416 -0.04309416  0.00000000       0.005
   0.00000000  0.00000000  0.08618832       0.003
  -0.02154708  0.02154708  0.10773540       0.011
  -0.04309416  0.04309416  0.12928248       0.011
  -0.06464124  0.06464124  0.15082956       0.011
  -0.08618832  0.08618832  0.17237664       0.011
   0.17237664 -0.17237664 -0.08618832       0.011
   0.15082956 -0.15082956 -0.06464124       0.011
   0.12928248 -0.12928248 -0.04309416       0.011
   0.10773540 -0.10773540 -0.02154708       0.011
   0.08618832 -0.08618832  0.00000000       0.005
   0.00000000  0.00000000  0.12928248       0.003
  -0.02154708  0.02154708  0.15082956       0.011
  -0.04309416  0.04309416  0.17237664       0.011
  -0.06464124  0.06464124  0.19392372       0.011
   0.19392372 -0.19392372 -0.06464124       0.011
   0.17237664 -0.17237664 -0.04309416       0.011
   0.15082956 -0.15082956 -0.02154708       0.011
   0.12928248 -0.12928248  0.00000000       0.005
   0.00000000  0.00000000  0.17237664       0.003
  -0.02154708  0.02154708  0.19392372       0.011
  -0.04309416  0.04309416  0.21547080       0.011
   0.21547080 -0.21547080 -0.04309416       0.011
   0.19392372 -0.19392372 -0.02154708       0.011
   0.17237664 -0.17237664  0.00000000       0.005
   0.00000000  0.00000000  0.21547080       0.003
  -0.02154708  0.02154708  0.23701788       0.011
   0.23701788 -0.23701788 -0.02154708       0.011
   0.21547080 -0.21547080  0.00000000       0.005
   0.00000000  0.00000000  0.25856496       0.003
   0.25856496 -0.25856496  0.00000000       0.005
   0.00000000  0.04309416  0.08618832       0.011
  -0.02154708  0.06464124  0.10773540       0.022
  -0.04309416  0.08618832  0.12928248       0.022
  -0.06464124  0.10773540  0.15082956       0.022
   0.19392372 -0.15082956 -0.10773540       0.022
   0.00000000  0.04309416  0.12928248       0.011
  -0.02154708  0.06464124  0.15082956       0.022
  -0.04309416  0.08618832  0.17237664       0.022
   0.21547080 -0.17237664 -0.08618832       0.022
   0.19392372 -0.15082956 -0.06464124       0.022
   0.17237664 -0.12928248 -0.04309416       0.022
   0.15082956 -0.10773540 -0.02154708       0.022
   0.12928248 -0.08618832  0.00000000       0.011
  -0.00000000  0.04309416  0.17237664       0.011
  -0.02154708  0.06464124  0.19392372       0.022
   0.23701788 -0.19392372 -0.06464124       0.022
   0.21547080 -0.17237664 -0.04309416       0.022
   0.19392372 -0.15082956 -0.02154708       0.022
   0.17237664 -0.12928248  0.00000000       0.011
   0.00000000  0.04309416  0.21547080       0.011
   0.25856496 -0.21547080 -0.04309416       0.022
   0.23701788 -0.19392372 -0.02154708       0.022
   0.21547080 -0.17237664  0.00000000       0.011
   0.28011204 -0.23701788 -0.02154708       0.011
   0.25856496 -0.21547080  0.00000000       0.011
   0.00000000  0.08618832  0.17237664       0.011
   0.25856496 -0.17237664 -0.08618832       0.022
   0.23701788 -0.15082956 -0.06464124       0.022
   0.28011204 -0.19392372 -0.06464124       0.011
   0.25856496 -0.17237664 -0.04309416       0.022
   0.23701788 -0.15082956 -0.02154708       0.022
   0.21547080 -0.12928248  0.00000000       0.011
   0.28011204 -0.19392372 -0.02154708       0.011
   0.25856496 -0.17237664  0.00000000       0.011
   0.28011204 -0.15082956 -0.02154708       0.011

 k-points in reciprocal lattice and weights: 4x4x4            Comment                
   0.00000000  0.00000000  0.00000000       0.000
   0.07692308  0.00000000  0.00000000       0.004
   0.15384615  0.00000000  0.00000000       0.004
   0.23076923  0.00000000  0.00000000       0.004
   0.30769231  0.00000000  0.00000000       0.004
   0.38461538  0.00000000  0.00000000       0.004
   0.46153846  0.00000000  0.00000000       0.004
   0.07692308  0.07692308  0.00000000       0.003
   0.15384615  0.07692308  0.00000000       0.011
   0.23076923  0.07692308  0.00000000       0.011
   0.30769231  0.07692308  0.00000000       0.011
   0.38461538  0.07692308  0.00000000       0.011
   0.46153846  0.07692308  0.00000000       0.011
  -0.46153846  0.07692308  0.00000000       0.011
  -0.38461538  0.07692308  0.00000000       0.011
  -0.30769231  0.07692308  0.00000000       0.011
  -0.23076923  0.07692308  0.00000000       0.011
  -0.15384615  0.07692308  0.00000000       0.011
  -0.07692308  0.07692308  0.00000000       0.005
   0.15384615  0.15384615  0.00000000       0.003
   0.23076923  0.15384615  0.00000000       0.011
   0.30769231  0.15384615  0.00000000       0.011
   0.38461538  0.15384615  0.00000000       0.011
   0.46153846  0.15384615  0.00000000       0.011
  -0.46153846  0.15384615  0.00000000       0.011
  -0.38461538  0.15384615  0.00000000       0.011
  -0.30769231  0.15384615  0.00000000       0.011
  -0.23076923  0.15384615  0.00000000       0.011
  -0.15384615  0.15384615  0.00000000       0.005
   0.23076923  0.23076923  0.00000000       0.003
   0.30769231  0.23076923  0.00000000       0.011
   0.38461538  0.23076923  0.00000000       0.011
   0.46153846  0.23076923  0.00000000       0.011
  -0.46153846  0.23076923  0.00000000       0.011
  -0.38461538  0.23076923  0.00000000       0.011
  -0.30769231  0.23076923  0.00000000       0.011
  -0.23076923  0.23076923  0.00000000       0.005
   0.30769231  0.30769231  0.00000000       0.003
   0.38461538  0.30769231  0.00000000       0.011
   0.46153846  0.30769231  0.00000000       0.011
  -0.46153846  0.30769231  0.00000000       0.011
  -0.38461538  0.30769231  0.00000000       0.011
  -0.30769231  0.30769231  0.00000000       0.005
   0.38461538  0.38461538  0.00000000       0.003
   0.46153846  0.38461538  0.00000000       0.011
  -0.46153846  0.38461538  0.00000000       0.011
  -0.38461538  0.38461538  0.00000000       0.005
   0.46153846  0.46153846  0.00000000       0.003
  -0.46153846  0.46153846  0.00000000       0.005
   0.23076923  0.15384615  0.07692308       0.011
   0.30769231  0.15384615  0.07692308       0.022
   0.38461538  0.15384615  0.07692308       0.022
   0.46153846  0.15384615  0.07692308       0.022
  -0.46153846  0.15384615  0.07692308       0.022
   0.30769231  0.23076923  0.07692308       0.011
   0.38461538  0.23076923  0.07692308       0.022
   0.46153846  0.23076923  0.07692308       0.022
  -0.46153846  0.23076923  0.07692308       0.022
  -0.38461538  0.23076923  0.07692308       0.022
  -0.30769231  0.23076923  0.07692308       0.022
  -0.23076923  0.23076923  0.07692308       0.022
  -0.15384615  0.23076923  0.07692308       0.011
   0.38461538  0.30769231  0.07692308       0.011
   0.46153846  0.30769231  0.07692308       0.022
  -0.46153846  0.30769231  0.07692308       0.022
  -0.38461538  0.30769231  0.07692308       0.022
  -0.30769231  0.30769231  0.07692308       0.022
  -0.23076923  0.30769231  0.07692308       0.011
   0.46153846  0.38461538  0.07692308       0.011
  -0.46153846  0.38461538  0.07692308       0.022
  -0.38461538  0.38461538  0.07692308       0.022
  -0.30769231  0.38461538  0.07692308       0.011
  -0.46153846  0.46153846  0.07692308       0.011
  -0.38461538  0.46153846  0.07692308       0.011
   0.46153846  0.30769231  0.15384615       0.011
  -0.46153846  0.30769231  0.15384615       0.022
  -0.38461538  0.30769231  0.15384615       0.022
  -0.46153846  0.38461538  0.15384615       0.011
  -0.38461538  0.38461538  0.15384615       0.022
  -0.30769231  0.38461538  0.15384615       0.022
  -0.23076923  0.38461538  0.15384615       0.011
  -0.38461538  0.46153846  0.15384615       0.011
  -0.30769231  0.46153846  0.15384615       0.011
  -0.30769231  0.46153846  0.23076923       0.011

 position of ions in fractional coordinates (direct lattice) 
   0.00000000  0.00000000  0.00000000
   0.25000000  0.25000000  0.25000000

 position of ions in cartesian coordinates  (Angst):
   0.00000000  0.00000000  0.00000000
   0.89250000  0.89250000  0.89250000



--------------------------------------------------------------------------------------------------------


 k-point  1 :   0.0000 0.0000 0.0000  plane waves:     331
 k-point  2 :   0.0769 0.0000 0.0000  plane waves:     332
 k-point  3 :   0.1538 0.0000 0.0000  plane waves:     329
 k-point  4 :   0.2308 0.0000 0.0000  plane waves:     326
 k-point  5 :   0.3077 0.0000 0.0000  plane waves:     338
 k-point  6 :   0.3846 0.0000 0.0000  plane waves:     338
 k-point  7 :   0.4615 0.0000 0.0000  plane waves:     338
 k-point  8 :   0.0769 0.0769 0.0000  plane waves:     331
 k-point  9 :   0.1538 0.0769 0.0000  plane waves:     331
 k-point 10 :   0.2308 0.0769 0.0000  plane waves:     326
 k-point 11 :   0.3077 0.0769 0.0000  plane waves:     333
 k-point 12 :   0.3846 0.0769 0.0000  plane waves:     333
 k-point 13 :   0.4615 0.0769 0.0000  plane waves:     337
 k-point 14 :  -0.4615 0.0769 0.0000  plane waves:     337
 k-point 15 :  -0.3846 0.0769 0.0000  plane waves:     336
 k-point 16 :  -0.3077 0.0769 0.0000  plane waves:     340
 k-point 17 :  -0.2308 0.0769 0.0000  plane waves:     331
 k-point 18 :  -0.1538 0.0769 0.0000  plane waves:     326
 k-point 19 :  -0.0769 0.0769 0.0000  plane waves:     333
 k-point 20 :   0.1538 0.1538 0.0000  plane waves:     331
 k-point 21 :   0.2308 0.1538 0.0000  plane waves:     330
 k-point 22 :   0.3077 0.1538 0.0000  plane waves:     329
 k-point 23 :   0.3846 0.1538 0.0000  plane waves:     330
 k-point 24 :   0.4615 0.1538 0.0000  plane waves:     330
 k-point 25 :  -0.4615 0.1538 0.0000  plane waves:     333
 k-point 26 :  -0.3846 0.1538 0.0000  plane waves:     335
 k-point 27 :  -0.3077 0.1538 0.0000  plane waves:     332
 k-point 28 :  -0.2308 0.1538 0.0000  plane waves:     330
 k-point 29 :  -0.1538 0.1538 0.0000  plane waves:     325
 k-point 30 :   0.2308 0.2308 0.0000  plane waves:     339
 k-point 31 :   0.3077 0.2308 0.0000  plane waves:     331
 k-point 32 :   0.3846 0.2308 0.0000  plane waves:     331
 k-point 33 :   0.4615 0.2308 0.0000  plane waves:     333
 k-point 34 :  -0.4615 0.2308 0.0000  plane waves:     335
 k-point 35 :  -0.3846 0.2308 0.0000  plane waves:     335
 k-point 36 :  -0.3077 0.2308 0.0000  plane waves:     335
 k-point 37 :  -0.2308 0.2308 0.0000  plane waves:     331
 k-point 38 :   0.3077 0.3077 0.0000  plane waves:     323
 k-point 39 :   0.3846 0.3077 0.0000  plane waves:     329
 k-point 40 :   0.4615 0.3077 0.0000  plane waves:     333
 k-point 41 :  -0.4615 0.3077 0.0000  plane waves:     339
 k-point 42 :  -0.3846 0.3077 0.0000  plane waves:     341
 k-point 43 :  -0.3077 0.3077 0.0000  plane waves:     333
 k-point 44 :   0.3846 0.3846 0.0000  plane waves:     327
 k-point 45 :   0.4615 0.3846 0.0000  plane waves:     328
 k-point 46 :  -0.4615 0.3846 0.0000  plane waves:     336
 k-point 47 :  -0.3846 0.3846 0.0000  plane waves:     337
 k-point 48 :   0.4615 0.4615 0.0000  plane waves:     334
 k-point 49 :  -0.4615 0.4615 0.0000  plane waves:     338
 k-point 50 :   0.2308 0.1538 0.0769  plane waves:     329
 k-point 51 :   0.3077 0.1538 0.0769  plane waves:     331
 k-point 52 :   0.3846 0.1538 0.0769  plane waves:     332
 k-point 53 :   0.4615 0.1538 0.0769  plane waves:     332
 k-point 54 :  -0.4615 0.1538 0.0769  plane waves:     335
 k-point 55 :   0.3077 0.2308 0.0769  plane waves:     328
 k-point 56 :   0.3846 0.2308 0.0769  plane waves:     331
 k-point 57 :   0.4615 0.2308 0.0769  plane waves:     330
 k-point 58 :  -0.4615 0.2308 0.0769  plane waves:     334
 k-point 59 :  -0.3846 0.2308 0.0769  plane waves:     339
 k-point 60 :  -0.3077 0.2308 0.0769  plane waves:     334
 k-point 61 :  -0.2308 0.2308 0.0769  plane waves:     332
 k-point 62 :  -0.1538 0.2308 0.0769  plane waves:     330
 k-point 63 :   0.3846 0.3077 0.0769  plane waves:     330
 k-point 64 :   0.4615 0.3077 0.0769  plane waves:     330
 k-point 65 :  -0.4615 0.3077 0.0769  plane waves:     335
 k-point 66 :  -0.3846 0.3077 0.0769  plane waves:     337
 k-point 67 :  -0.3077 0.3077 0.0769  plane waves:     333
 k-point 68 :  -0.2308 0.3077 0.0769  plane waves:     335
 k-point 69 :   0.4615 0.3846 0.0769  plane waves:     330
 k-point 70 :  -0.4615 0.3846 0.0769  plane waves:     332
 k-point 71 :  -0.3846 0.3846 0.0769  plane waves:     337
 k-point 72 :  -0.3077 0.3846 0.0769  plane waves:     336
 k-point 73 :  -0.4615 0.4615 0.0769  plane waves:     333
 k-point 74 :  -0.3846 0.4615 0.0769  plane waves:     336
 k-point 75 :   0.4615 0.3077 0.1538  plane waves:     330
 k-point 76 :  -0.4615 0.3077 0.1538  plane waves:     333
 k-point 77 :  -0.3846 0.3077 0.1538  plane waves:     335
 k-point 78 :  -0.4615 0.3846 0.1538  plane waves:     337
 k-point 79 :  -0.3846 0.3846 0.1538  plane waves:     336
 k-point 80 :  -0.3077 0.3846 0.1538  plane waves:     333
 k-point 81 :  -0.2308 0.3846 0.1538  plane waves:     336
 k-point 82 :  -0.3846 0.4615 0.1538  plane waves:     336
 k-point 83 :  -0.3077 0.4615 0.1538  plane waves:     337
 k-point 84 :  -0.3077 0.4615 0.2308  plane waves:     334

 maximum and minimum number of plane-waves per node :        74       57

 maximum number of plane-waves:       341
 maximum index in each direction: 
   IXMAX=    5   IYMAX=    4   IZMAX=    4
   IXMIN=   -5   IYMIN=   -5   IZMIN=   -5

 WARNING: aliasing errors must be expected set NGX to  22 to avoid them
 WARNING: aliasing errors must be expected set NGY to  20 to avoid them
 WARNING: aliasing errors must be expected set NGZ to  20 to avoid them
 aliasing errors are usually negligible using standard VASP settings
 and one can safely disregard these warnings

 parallel 3D FFT for wavefunctions:
    minimum data exchange during FFTs selected (reduces bandwidth)
 parallel 3D FFT for charge:
    minimum data exchange during FFTs selected (reduces bandwidth)


 total amount of memory used by VASP on root node    30813. kBytes
========================================================================

   base      :      30000. kBytes
   nonl-proj :        411. kBytes
   fftplans  :         71. kBytes
   grid      :        103. kBytes
   one-center:          3. kBytes
   wavefun   :        225. kBytes

     INWAV:  cpu time    0.0000: real time    0.0000
 Broyden mixing: mesh for mixing (old mesh)
   NGX =  9   NGY =  9   NGZ =  9
  (NGX  = 28   NGY  = 28   NGZ  = 28)
  gives a total of    729 points

 initial charge density was supplied:
 charge density of overlapping atoms calculated
 number of electron       8.0000000 magnetization 
 keeping initial charge density in first step


--------------------------------------------------------------------------------------------------------


 Maximum index for augmentation-charges          280 (set IRDMAX)


--------------------------------------------------------------------------------------------------------


 First call to EWALD:  gamma=   0.788
 Maximum number of real-space cells 3x 3x 3
 Maximum number of reciprocal cells 3x 3x 3

 FEWALD executed in parallel
    FEWALD:  cpu time    0.0008: real time    0.0008


----------------------------------------- Iteration    1(   1)  ---------------------------------------


    POTLOK:  cpu time    0.0062: real time    0.0063
    SETDIJ:  cpu time    0.0017: real time    0.0018
     EDDAV:  cpu time    0.2614: real time    0.2621
       DOS:  cpu time    0.0004: real time    0.0004
    --------------------------------------------
      LOOP:  cpu time    0.2710: real time    0.3008

 eigenvalue-minimisations  :  1392
 total energy-change (2. order) : 0.8569061E+00  (-0.5324631E+03)
 number of electron       8.0000000 magnetization 
 augmentation part        8.0000000 magnetization 

 Free energy of the ion-electron system (eV)
  ---------------------------------------------------
  alpha Z        PSCENC =        28.88720614
  Ewald energy   TEWEN  =      -347.64704212
  -Hartree energ DENC   =       -17.67355796
  -exchange      EXHF   =         0.00000000
  -V(xc)+E(xc)   XCENC  =        27.38817954
  PAW double counting   =       217.04409276     -218.18290438
  entropy T*S    EENTRO =        -0.00006246
  eigenvalues    EBANDS =        16.74219297
  atomic energy  EATOM  =       294.29880157
  Solvation  Ediel_sol  =         0.00000000
  ---------------------------------------------------
  free energy    TOTEN  =         0.85690607 eV

  energy without entropy =        0.85696853  energy(sigma->0) =        0.85693730


--------------------------------------------------------------------------------------------------------




----------------------------------------- Iteration    1(   2)  ---------------------------------------


     EDDAV:  cpu time    0.4512: real time    0.4530
       DOS:  cpu time    0.0002: real time    0.0002
    --------------------------------------------
      LOOP:  cpu time    0.4519: real time    0.4587

 eigenvalue-minimisations  :  2136
 total energy-change (2. order) :-0.1955421E+02  (-0.1894458E+02)
 number of electron       8.0000000 magnetization 
 augmentation part        8.0000000 magnetization 

 Free energy of the ion-electron system (eV)
  ---------------------------------------------------
  alpha Z        PSCENC =        28.88720614
  Ewald energy   TEWEN  =      -347.64704212
  -Hartree energ DENC   =       -17.67355796
  -exchange      EXHF   =         0.00000000
  -V(xc)+E(xc)   XCENC  =        27.38817954
  PAW double counting   =       217.04409276     -218.18290438
  entropy T*S    EENTRO =        -0.00000000
  eigenvalues    EBANDS =        -2.81207834
  atomic energy  EATOM  =       294.29880157
  Solvation  Ediel_sol  =         0.00000000
  ---------------------------------------------------
  free energy    TOTEN  =       -18.69730278 eV

  energy without entropy =      -18.69730278  energy(sigma->0) =      -18.69730278


--------------------------------------------------------------------------------------------------------




----------------------------------------- Iteration    1(   3)  ---------------------------------------


     EDDAV:  cpu time    0.2810: real time    0.2822
       DOS:  cpu time    0.0002: real time    0.0002
    --------------------------------------------
      LOOP:  cpu time    0.2818: real time    0.2868

 eigenvalue-minimisations  :  1440
 total energy-change (2. order) :-0.1224105E+00  (-0.1224105E+00)
 number of electron       8.0000000 magnetization 
 augmentation part        8.0000000 magnetization 

 Free energy of the ion-electron system (eV)
  ---------------------------------------------------
  alpha Z        PSCENC =        28.88720614
  Ewald energy   TEWEN  =      -347.64704212
  -Hartree energ DENC   =       -17.67355796
  -exchange      EXHF   =         0.00000000
  -V(xc)+E(xc)   XCENC  =        27.38817954
  PAW double counting   =       217.04409276     -218.18290438
  entropy T*S    EENTRO =        -0.00000000
  eigenvalues    EBANDS =        -2.93448879
  atomic energy  EATOM  =       294.29880157
  Solvation  Ediel_sol  =         0.00000000
  ---------------------------------------------------
  free energy    TOTEN  =       -18.81971323 eV

  energy without entropy =      -18.81971323  energy(sigma->0) =      -18.81971323


--------------------------------------------------------------------------------------------------------




----------------------------------------- Iteration    1(   4)  ---------------------------------------


     EDDAV:  cpu time    0.4018: real time    0.4029
       DOS:  cpu time    0.0002: real time    0.0003
    --------------------------------------------
      LOOP:  cpu time    0.4025: real time    0.4086

 eigenvalue-minimisations  :  1984
 total energy-change (2. order) :-0.1793090E-03  (-0.1793090E-03)
 number of electron       8.0000000 magnetization 
 augmentation part        8.0000000 magnetization 

 Free energy of the ion-electron system (eV)
  ---------------------------------------------------
  alpha Z        PSCENC =        28.88720614
  Ewald energy   TEWEN  =      -347.64704212
  -Hartree energ DENC   =       -17.67355796
  -exchange      EXHF   =         0.00000000
  -V(xc)+E(xc)   XCENC  =        27.38817954
  PAW double counting   =       217.04409276     -218.18290438
  entropy T*S    EENTRO =        -0.00000000
  eigenvalues    EBANDS =        -2.93466810
  atomic energy  EATOM  =       294.29880157
  Solvation  Ediel_sol  =         0.00000000
  ---------------------------------------------------
  free energy    TOTEN  =       -18.81989254 eV

  energy without entropy =      -18.81989254  energy(sigma->0) =      -18.81989254


--------------------------------------------------------------------------------------------------------




----------------------------------------- Iteration    1(   5)  ---------------------------------------


     EDDAV:  cpu time    0.2580: real time    0.2591
       DOS:  cpu time    0.0002: real time    0.0002
    CHARGE:  cpu time    0.0045: real time    0.0046
    MIXING:  cpu time    0.0004: real time    0.0004
    --------------------------------------------
      LOOP:  cpu time    0.2636: real time    0.2694

 eigenvalue-minimisations  :  1392
 total energy-change (2. order) :-0.4125093E-07  (-0.4125092E-07)
 number of electron       8.0000000 magnetization 
 augmentation part        0.1992843 magnetization 

 Broyden mixing:
  rms(total) = 0.55226E+00    rms(broyden)= 0.55221E+00
  rms(prec ) = 0.18486E+01
  weight for this iteration     100.00

 Free energy of the ion-electron system (eV)
  ---------------------------------------------------
  alpha Z        PSCENC =        28.88720614
  Ewald energy   TEWEN  =      -347.64704212
  -Hartree energ DENC   =       -17.67355796
  -exchange      EXHF   =         0.00000000
  -V(xc)+E(xc)   XCENC  =        27.38817954
  PAW double counting   =       217.04409276     -218.18290438
  entropy T*S    EENTRO =        -0.00000000
  eigenvalues    EBANDS =        -2.93466814
  atomic energy  EATOM  =       294.29880157
  Solvation  Ediel_sol  =         0.00000000
  ---------------------------------------------------
  free energy    TOTEN  =       -18.81989258 eV

  energy without entropy =      -18.81989258  energy(sigma->0) =      -18.81989258


--------------------------------------------------------------------------------------------------------




----------------------------------------- Iteration    1(   6)  ---------------------------------------


    POTLOK:  cpu time    0.0027: real time    0.0027
    SETDIJ:  cpu time    0.0016: real time    0.0016
     EDDAV:  cpu time    0.2596: real time    0.2606
       DOS:  cpu time    0.0002: real time    0.0003
    CHARGE:  cpu time    0.0043: real time    0.0043
    MIXING:  cpu time    0.0002: real time    0.0002
    --------------------------------------------
      LOOP:  cpu time    0.2690: real time    0.2751

 eigenvalue-minimisations  :  1400
 total energy-change (2. order) : 0.4746949E+00  (-0.3637648E-01)
 number of electron       8.0000000 magnetization 
 augmentation part        0.1943956 magnetization 

 Broyden mixing:
  rms(total) = 0.33141E+00    rms(broyden)= 0.33140E+00
  rms(prec ) = 0.10054E+01
  weight for this iteration     100.00

 eigenvalues of (default mixing * dielectric matrix)
  average eigenvalue GAMMA=   2.3320
  2.3320

 Free energy of the ion-electron system (eV)
  ---------------------------------------------------
  alpha Z        PSCENC =        28.88720614
  Ewald energy   TEWEN  =      -347.64704212
  -Hartree energ DENC   =       -21.47808682
  -exchange      EXHF   =         0.00000000
  -V(xc)+E(xc)   XCENC  =        27.72845444
  PAW double counting   =       376.08230827     -377.33963513
  entropy T*S    EENTRO =        -0.00000000
  eigenvalues    EBANDS =         1.12279601
  atomic energy  EATOM  =       294.29880157
  Solvation  Ediel_sol  =         0.00000000
  ---------------------------------------------------
  free energy    TOTEN  =       -18.34519763 eV

  energy without entropy =      -18.34519763  energy(sigma->0) =      -18.34519763


--------------------------------------------------------------------------------------------------------




----------------------------------------- Iteration    1(   7)  ---------------------------------------


    POTLOK:  cpu time    0.0028: real time    0.0028
    SETDIJ:  cpu time    0.0015: real time    0.0015
     EDDAV:  cpu time    0.3068: real time    0.3113
       DOS:  cpu time    0.0002: real time    0.0002
    CHARGE:  cpu time    0.0040: real time    0.0040
    MIXING:  cpu time    0.0001: real time    0.0001
    --------------------------------------------
      LOOP:  cpu time    0.3157: real time    0.3262

 eigenvalue-minimisations  :  1600
 total energy-change (2. order) : 0.1597205E+00  (-0.4017804E-01)
 number of electron       8.0000000 magnetization 
 augmentation part        0.1891885 magnetization 

 Broyden mixing:
  rms(total) = 0.75636E-01    rms(broyden)= 0.75622E-01
  rms(prec ) = 0.11471E+00
  weight for this iteration     100.00

 eigenvalues of (default mixing * dielectric matrix)
  average eigenvalue GAMMA=   2.2210
  1.9385  2.5035

 Free energy of the ion-electron system (eV)
  ---------------------------------------------------
  alpha Z        PSCENC =        28.88720614
  Ewald energy   TEWEN  =      -347.64704212
  -Hartree energ DENC   =       -26.34039440
  -exchange      EXHF   =         0.00000000
  -V(xc)+E(xc)   XCENC  =        28.17432751
  PAW double counting   =       675.00055758     -676.36924973
  entropy T*S    EENTRO =        -0.00000000
  eigenvalues    EBANDS =         5.81031629
  atomic energy  EATOM  =       294.29880157
  Solvation  Ediel_sol  =         0.00000000
  ---------------------------------------------------
  free energy    TOTEN  =       -18.18547715 eV

  energy without entropy =      -18.18547715  energy(sigma->0) =      -18.18547715


--------------------------------------------------------------------------------------------------------




----------------------------------------- Iteration    1(   8)  ---------------------------------------


    POTLOK:  cpu time    0.0025: real time    0.0025
    SETDIJ:  cpu time    0.0015: real time    0.0015
     EDDAV:  cpu time    0.2623: real time    0.2632
       DOS:  cpu time    0.0002: real time    0.0002
    CHARGE:  cpu time    0.0042: real time    0.0042
    MIXING:  cpu time    0.0001: real time    0.0001
    --------------------------------------------
      LOOP:  cpu time    0.2712: real time    0.2769

 eigenvalue-minimisations  :  1408
 total energy-change (2. order) :-0.1269303E-02  (-0.1820442E-03)
 number of electron       8.0000000 magnetization 
 augmentation part        0.1893135 magnetization 

 Broyden mixing:
  rms(total) = 0.46464E-02    rms(broyden)= 0.46401E-02
  rms(prec ) = 0.13609E-01
  weight for this iteration     100.00

 eigenvalues of (default mixing * dielectric matrix)
  average eigenvalue GAMMA=   2.0182
  1.3731  2.4233  2.2582

 Free energy of the ion-electron system (eV)
  ---------------------------------------------------
  alpha Z        PSCENC =        28.88720614
  Ewald energy   TEWEN  =      -347.64704212
  -Hartree energ DENC   =       -26.47938467
  -exchange      EXHF   =         0.00000000
  -V(xc)+E(xc)   XCENC  =        28.19232724
  PAW double counting   =       761.42971775     -762.77037738
  entropy T*S    EENTRO =        -0.00000000
  eigenvalues    EBANDS =         5.90200501
  atomic energy  EATOM  =       294.29880157
  Solvation  Ediel_sol  =         0.00000000
  ---------------------------------------------------
  free energy    TOTEN  =       -18.18674645 eV

  energy without entropy =      -18.18674645  energy(sigma->0) =      -18.18674645


--------------------------------------------------------------------------------------------------------




----------------------------------------- Iteration    1(   9)  ---------------------------------------


    POTLOK:  cpu time    0.0028: real time    0.0028
    SETDIJ:  cpu time    0.0015: real time    0.0015
     EDDAV:  cpu time    0.3868: real time    0.3877
       DOS:  cpu time    0.0002: real time    0.0002
    CHARGE:  cpu time    0.0042: real time    0.0042
    MIXING:  cpu time    0.0001: real time    0.0001
    --------------------------------------------
      LOOP:  cpu time    0.3960: real time    0.4014

 eigenvalue-minimisations  :  1952
 total energy-change (2. order) :-0.1702297E-04  (-0.1310527E-04)
 number of electron       8.0000000 magnetization 
 augmentation part        0.1893957 magnetization 

 Broyden mixing:
  rms(total) = 0.27178E-02    rms(broyden)= 0.27177E-02
  rms(prec ) = 0.43615E-02
  weight for this iteration     100.00

 eigenvalues of (default mixing * dielectric matrix)
  average eigenvalue GAMMA=   2.1583
  1.0157  2.0800  2.8761  2.6615

 Free energy of the ion-electron system (eV)
  ---------------------------------------------------
  alpha Z        PSCENC =        28.88720614
  Ewald energy   TEWEN  =      -347.64704212
  -Hartree energ DENC   =       -26.42705088
  -exchange      EXHF   =         0.00000000
  -V(xc)+E(xc)   XCENC  =        28.18792554
  PAW double counting   =       762.21023085     -763.54693014
  entropy T*S    EENTRO =        -0.00000000
  eigenvalues    EBANDS =         5.85009556
  atomic energy  EATOM  =       294.29880157
  Solvation  Ediel_sol  =         0.00000000
  ---------------------------------------------------
  free energy    TOTEN  =       -18.18676348 eV

  energy without entropy =      -18.18676348  energy(sigma->0) =      -18.18676348


--------------------------------------------------------------------------------------------------------




----------------------------------------- Iteration    1(  10)  ---------------------------------------


    POTLOK:  cpu time    0.0025: real time    0.0025
    SETDIJ:  cpu time    0.0015: real time    0.0015
     EDDAV:  cpu time    0.2544: real time    0.2551
       DOS:  cpu time    0.0002: real time    0.0002
    CHARGE:  cpu time    0.0040: real time    0.0040
    MIXING:  cpu time    0.0001: real time    0.0001
    --------------------------------------------
      LOOP:  cpu time    0.2633: real time    0.2694

 eigenvalue-minimisations  :  1376
 total energy-change (2. order) :-0.1280266E-04  (-0.1380489E-05)
 number of electron       8.0000000 magnetization 
 augmentation part        0.1893916 magnetization 

 Broyden mixing:
  rms(total) = 0.61319E-03    rms(broyden)= 0.61316E-03
  rms(prec ) = 0.69793E-03
  weight for this iteration     100.00

 eigenvalues of (default mixing * dielectric matrix)
  average eigenvalue GAMMA=   1.8395
  2.8152  2.5340  2.0441  0.9819  0.8224

 Free energy of the ion-electron system (eV)
  ---------------------------------------------------
  alpha Z        PSCENC =        28.88720614
  Ewald energy   TEWEN  =      -347.64704212
  -Hartree energ DENC   =       -26.44167263
  -exchange      EXHF   =         0.00000000
  -V(xc)+E(xc)   XCENC  =        28.18921357
  PAW double counting   =       758.38272660     -759.71994478
  entropy T*S    EENTRO =        -0.00000000
  eigenvalues    EBANDS =         5.86393537
  atomic energy  EATOM  =       294.29880157
  Solvation  Ediel_sol  =         0.00000000
  ---------------------------------------------------
  free energy    TOTEN  =       -18.18677628 eV

  energy without entropy =      -18.18677628  energy(sigma->0) =      -18.18677628


--------------------------------------------------------------------------------------------------------




----------------------------------------- Iteration    1(  11)  ---------------------------------------


    POTLOK:  cpu time    0.0026: real time    0.0026
    SETDIJ:  cpu time    0.0015: real time    0.0015
     EDDAV:  cpu time    0.1900: real time    0.1906
       DOS:  cpu time    0.0002: real time    0.0002
    --------------------------------------------
      LOOP:  cpu time    0.1948: real time    0.2002

 eigenvalue-minimisations  :   976
 total energy-change (2. order) : 0.1447929E-06  (-0.3826335E-08)
 number of electron       8.0000000 magnetization 
 augmentation part        0.1893916 magnetization 

 Free energy of the ion-electron system (eV)
  ---------------------------------------------------
  alpha Z        PSCENC =        28.88720614
  Ewald energy   TEWEN  =      -347.64704212
  -Hartree energ DENC   =       -26.44165184
  -exchange      EXHF   =         0.00000000
  -V(xc)+E(xc)   XCENC  =        28.18923593
  PAW double counting   =       758.96465218     -760.30172615
  entropy T*S    EENTRO =        -0.00000000
  eigenvalues    EBANDS =         5.86374816
  atomic energy  EATOM  =       294.29880157
  Solvation  Ediel_sol  =         0.00000000
  ---------------------------------------------------
  free energy    TOTEN  =       -18.18677613 eV

  energy without entropy =      -18.18677613  energy(sigma->0) =      -18.18677613


--------------------------------------------------------------------------------------------------------




 average (electrostatic) potential at core
  the test charge radii are     0.6991
  (the norm of the test charge is              1.0000)
       1 -45.4235       2 -45.4235



 E-fermi :   9.8032     XC(G=0): -13.2371     alpha+bet :-17.6219


 k-point     1 :       0.0000    0.0000    0.0000
  band No.  band energies     occupation 
      1     -11.7503      2.00000
      2       9.6897      2.00000
      3       9.6898      2.00000
      4       9.6898      2.00000
      5      15.2723      0.00000
      6      15.2724      0.00000
      7      15.2724      0.00000
      8      22.9588      0.00000

 k-point     2 :       0.0769    0.0000    0.0000
  band No.  band energies     occupation 
      1     -11.5867      2.00000
      2       8.6271      2.00000
      3       9.4120      2.00000
      4       9.4120      2.00000
      5      15.6362      0.00000
      6      15.6363      0.00000
      7      15.8979      0.00000
      8      23.1010      0.00000

 k-point     3 :       0.1538    0.0000    0.0000
  band No.  band energies     occupation 
      1     -11.0976      2.00000
      2       6.3635      2.00000
      3       8.7852      2.00000
      4       8.7852      2.00000
      5      16.4611      0.00000
      6      16.4612      0.00000
      7      16.9169      0.00000
      8      23.5148      0.00000

 k-point     4 :       0.2308    0.0000    0.0000
  band No.  band energies     occupation 
      1     -10.2890      2.00000
      2       3.7685      2.00000
      3       8.1059      2.00000
      4       8.1060      2.00000
      5      17.2955      0.00000
      6      17.2956      0.00000
      7      17.6716      0.00000
      8      24.1201      0.00000

 k-point     5 :       0.3077    0.0000    0.0000
  band No.  band energies     occupation 
      1      -9.1746      2.00000
      2       1.1728      2.00000
      3       7.5318      2.00000
      4       7.5318      2.00000
      5      17.8459      0.00000
      6      17.8459      0.00000
      7      18.1259      0.00000
      8      24.7348      0.00000

 k-point     6 :       0.3846    0.0000    0.0000
  band No.  band energies     occupation 
      1      -7.7925      2.00000
      2      -1.2493      2.00000
      3       7.1289      2.00000
      4       7.1289      2.00000
      5      18.0782      0.00000
      6      18.0783      0.00000
      7      18.3757      0.00000
      8      25.1617      0.00000

 k-point     7 :       0.4615    0.0000    0.0000
  band No.  band energies     occupation 
      1      -6.3418      2.00000
      2      -3.2342      2.00000
      3       6.9230      2.00000
      4       6.9230      2.00000
      5      18.1333      0.00000
      6      18.1333      0.00000
      7      18.4872      0.00000
      8      25.3419      0.00000

 k-point     8 :       0.0769    0.0769    0.0000
  band No.  band energies     occupation 
      1     -11.5322      2.00000
      2       8.8968      2.00000
      3       8.8969      2.00000
      4       9.1633      2.00000
      5      15.1039      0.00000
      6      16.2523      0.00000
      7      16.2523      0.00000
      8      23.0770      0.00000

 k-point     9 :       0.1538    0.0769    0.0000
  band No.  band energies     occupation 
      1     -11.1517      2.00000
      2       7.1291      2.00000
      3       8.1680      2.00000
      4       8.8815      2.00000
      5      15.3531      0.00000
      6      17.2177      0.00000
      7      17.2471      0.00000
      8      23.1844      0.00000

 k-point    10 :       0.2308    0.0769    0.0000
  band No.  band energies     occupation 
      1     -10.4496      2.00000
      2       4.6793      2.00000
      3       7.4781      2.00000
      4       8.2969      2.00000
      5      16.1189      0.00000
      6      18.0925      0.00000
      7      18.1330      0.00000
      8      23.4109      0.00000

 k-point    11 :       0.3077    0.0769    0.0000
  band No.  band energies     occupation 
      1      -9.4365      2.00000
      2       2.1077      2.00000
      3       6.9508      2.00000
      4       7.6082      2.00000
      5      16.8872      0.00000
      6      18.6226      0.00000
      7      18.7124      0.00000
      8      23.8290      0.00000

 k-point    12 :       0.3846    0.0769    0.0000
  band No.  band energies     occupation 
      1      -8.1387      2.00000
      2      -0.3631      2.00000
      3       6.6374      2.00000
      4       6.9853      2.00000
      5      17.3884      0.00000
      6      18.8848      0.00000
      7      18.9117      0.00000
      8      24.4779      0.00000

 k-point    13 :       0.4615    0.0769    0.0000
  band No.  band energies     occupation 
      1      -6.6606      2.00000
      2      -2.5372      2.00000
      3       6.5094      2.00000
      4       6.5541      2.00000
      5      17.6820      0.00000
      6      18.7812      0.00000
      7      19.0431      0.00000
      8      25.0964      0.00000

 k-point    14 :      -0.4615    0.0769    0.0000
  band No.  band energies     occupation 
      1      -5.9069      2.00000
      2      -3.4668      2.00000
      3       6.2230      2.00000
      4       6.6977      2.00000
      5      17.9236      0.00000
      6      18.5606      0.00000
      7      19.0609      0.00000
      8      25.3500      0.00000

 k-point    15 :      -0.3846    0.0769    0.0000
  band No.  band energies     occupation 
      1      -7.1568      2.00000
      2      -1.8632      2.00000
      3       6.1512      2.00000
      4       7.0516      2.00000
      5      18.1613      0.00000
      6      18.2780      0.00000
      7      18.9736      0.00000
      8      25.1268      0.00000

 k-point    16 :      -0.3077    0.0769    0.0000
  band No.  band energies     occupation 
      1      -8.6003      2.00000
      2       0.4439      2.00000
      3       6.3078      2.00000
      4       7.5860      2.00000
      5      17.8649      0.00000
      6      18.2964      0.00000
      7      18.7455      0.00000
      8      24.5575      0.00000

 k-point    17 :      -0.2308    0.0769    0.0000
  band No.  band energies     occupation 
      1      -9.8079      2.00000
      2       2.9688      2.00000
      3       6.6934      2.00000
      4       8.2473      2.00000
      5      17.2169      0.00000
      6      18.1565      0.00000
      7      18.2641      0.00000
      8      23.9610      0.00000

 k-point    18 :      -0.1538    0.0769    0.0000
  band No.  band energies     occupation 
      1     -10.7190      2.00000
      2       5.5261      2.00000
      3       7.2927      2.00000
      4       8.9287      2.00000
      5      16.3888      0.00000
      6      17.4284      0.00000
      7      17.6456      0.00000
      8      23.5408      0.00000

 k-point    19 :      -0.0769    0.0769    0.0000
  band No.  band energies     occupation 
      1     -11.3146      2.00000
      2       7.7106      2.00000
      3       8.1672      2.00000
      4       9.4144      2.00000
      5      15.7134      0.00000
      6      16.4262      0.00000
      7      16.7635      0.00000
      8      23.2619      0.00000

 k-point    20 :       0.1538    0.1538    0.0000
  band No.  band energies     occupation 
      1     -10.8805      2.00000
      2       7.3837      2.00000
      3       7.3838      2.00000
      4       7.7510      2.00000
      5      14.6908      0.00000
      6      18.3135      0.00000
      7      18.3136      0.00000
      8      22.5967      0.00000

 k-point    21 :       0.2308    0.1538    0.0000
  band No.  band energies     occupation 
      1     -10.2873      2.00000
      2       5.4946      2.00000
      3       6.6658      2.00000
      4       7.3753      2.00000
      5      14.8973      0.00000
      6      19.3359      0.00000
      7      19.3791      0.00000
      8      21.9785      0.00000

 k-point    22 :       0.3077    0.1538    0.0000
  band No.  band energies     occupation 
      1      -9.3804      2.00000
      2       3.1215      2.00000
      3       6.1328      2.00000
      4       6.7266      2.00000
      5      15.6434      0.00000
      6      20.0137      0.00000
      7      20.1148      0.00000
      8      21.7605      0.00000

 k-point    23 :       0.3846    0.1538    0.0000
  band No.  band energies     occupation 
      1      -8.1796      2.00000
      2       0.7110      2.00000
      3       5.8376      2.00000
      4       5.9614      2.00000
      5      16.3299      0.00000
      6      20.3808      0.00000
      7      20.3837      0.00000
      8      22.3240      0.00000

 k-point    24 :       0.4615    0.1538    0.0000
  band No.  band energies     occupation 
      1      -6.7480      2.00000
      2      -1.5256      2.00000
      3       5.2674      2.00000
      4       5.7984      2.00000
      5      16.7623      0.00000
      6      20.2549      0.00000
      7      20.5481      0.00000
      8      23.5806      0.00000

 k-point    25 :      -0.4615    0.1538    0.0000
  band No.  band energies     occupation 
      1      -5.5201      2.00000
      2      -3.0810      2.00000
      3       4.7410      2.00000
      4       6.0117      2.00000
      5      17.1237      0.00000
      6      19.9019      0.00000
      7      20.5810      0.00000
      8      24.8535      0.00000

 k-point    26 :      -0.3846    0.1538    0.0000
  band No.  band energies     occupation 
      1      -6.2656      2.00000
      2      -2.1587      2.00000
      3       4.4353      2.00000
      4       6.4559      2.00000
      5      17.5475      0.00000
      6      19.4154      0.00000
      7      20.5089      0.00000
      8      25.1022      0.00000

 k-point    27 :      -0.3077    0.1538    0.0000
  band No.  band energies     occupation 
      1      -7.7268      2.00000
      2      -0.0288      2.00000
      3       4.3828      2.00000
      4       7.0875      2.00000
      5      17.9991      0.00000
      6      18.7741      0.00000
      7      20.2786      0.00000
      8      24.2818      0.00000

 k-point    28 :      -0.2308    0.1538    0.0000
  band No.  band energies     occupation 
      1      -9.0139      2.00000
      2       2.3509      2.00000
      3       4.6145      2.00000
      4       7.8271      2.00000
      5      17.9312      0.00000
      6      18.2983      0.00000
      7      19.6848      0.00000
      8      23.5264      0.00000

 k-point    29 :      -0.1538    0.1538    0.0000
  band No.  band energies     occupation 
      1     -10.0207      2.00000
      2       4.5194      2.00000
      3       5.3682      2.00000
      4       8.5261      2.00000
      5      17.0097      0.00000
      6      18.2163      0.00000
      7      18.6124      0.00000
      8      23.3929      0.00000

 k-point    30 :       0.2308    0.2308    0.0000
  band No.  band energies     occupation 
      1      -9.8039      2.00000
      2       5.7450      2.00000
      3       5.9095      2.00000
      4       5.9095      2.00000
      5      14.2275      0.00000
      6      20.5412      0.00000
      7      20.6601      0.00000
      8      20.6602      0.00000

 k-point    31 :       0.3077    0.2308    0.0000
  band No.  band energies     occupation 
      1      -9.0060      2.00000
      2       3.8719      2.00000
      3       5.3379      2.00000
      4       5.4781      2.00000
      5      14.4773      0.00000
      6      19.6393      0.00000
      7      21.6339      0.00000
      8      21.6546      0.00000

 k-point    32 :       0.3846    0.2308    0.0000
  band No.  band energies     occupation 
      1      -7.9096      2.00000
      2       1.7491      2.00000
      3       4.6461      2.00000
      4       5.0119      2.00000
      5      15.2143      0.00000
      6      19.6752      0.00000
      7      22.1495      0.00000
      8      22.1870      0.00000

 k-point    33 :       0.4615    0.2308    0.0000
  band No.  band energies     occupation 
      1      -6.5578      2.00000
      2      -0.3752      2.00000
      3       3.7506      2.00000
      4       4.9554      2.00000
      5      15.7774      0.00000
      6      20.8866      0.00000
      7      22.1354      0.00000
      8      22.4395      0.00000

 k-point    34 :      -0.4615    0.2308    0.0000
  band No.  band energies     occupation 
      1      -5.1622      2.00000
      2      -2.1704      2.00000
      3       2.9997      2.00000
      4       5.1692      2.00000
      5      16.1859      0.00000
      6      21.7466      0.00000
      7      22.4532      0.00000
      8      22.9159      0.00000

 k-point    35 :      -0.3846    0.2308    0.0000
  band No.  band energies     occupation 
      1      -5.1896      2.00000
      2      -2.1085      2.00000
      3       2.4869      2.00000
      4       5.6335      2.00000
      5      16.6738      0.00000
      6      21.0940      0.00000
      7      22.4471      0.00000
      8      24.6282      0.00000

 k-point    36 :      -0.3077    0.2308    0.0000
  band No.  band energies     occupation 
      1      -6.5824      2.00000
      2      -0.2568      2.00000
      3       2.2769      2.00000
      4       6.3027      2.00000
      5      17.2881      0.00000
      6      20.1927      0.00000
      7      22.2304      0.00000
      8      24.1866      0.00000

 k-point    37 :      -0.2308    0.2308    0.0000
  band No.  band energies     occupation 
      1      -7.9241      2.00000
      2       1.6342      2.00000
      3       2.6842      2.00000
      4       7.0890      2.00000
      5      17.9153      0.00000
      6      19.0656      0.00000
      7      21.2819      0.00000
      8      23.4166      0.00000

 k-point    38 :       0.3077    0.3077    0.0000
  band No.  band energies     occupation 
      1      -8.3184      2.00000
      2       3.3655      2.00000
      3       4.7135      2.00000
      4       4.7135      2.00000
      5      13.8946      0.00000
      6      18.1322      0.00000
      7      22.9787      0.00000
      8      22.9788      0.00000

 k-point    39 :       0.3846    0.3077    0.0000
  band No.  band energies     occupation 
      1      -7.3307      2.00000
      2       1.9095      2.00000
      3       3.9330      2.00000
      4       4.3318      2.00000
      5      14.2455      0.00000
      6      17.4938      0.00000
      7      23.8043      0.00000
      8      23.8316      0.00000

 k-point    40 :       0.4615    0.3077    0.0000
  band No.  band energies     occupation 
      1      -6.0749      2.00000
      2       0.3134      2.00000
      3       2.7277      2.00000
      4       4.2244      2.00000
      5      14.9292      0.00000
      6      18.1087      0.00000
      7      24.0131      0.00000
      8      24.2410      0.00000

 k-point    41 :      -0.4615    0.3077    0.0000
  band No.  band energies     occupation 
      1      -4.6699      2.00000
      2      -1.2538      2.00000
      3       1.5868      2.00000
      4       4.3974      2.00000
      5      15.3741      0.00000
      6      20.0181      0.00000
      7      23.6657      0.00000
      8      24.3787      0.00000

 k-point    42 :      -0.3846    0.3077    0.0000
  band No.  band energies     occupation 
      1      -4.0602      2.00000
      2      -1.8234      2.00000
      3       0.7953      2.00000
      4       4.8359      2.00000
      5      15.8526      0.00000
      6      22.4579      0.00000
      7      22.8628      0.00000
      8      24.4050      0.00000

 k-point    43 :      -0.3077    0.3077    0.0000
  band No.  band energies     occupation 
      1      -5.2378      2.00000
      2      -0.6316      2.00000
      3       0.7036      2.00000
      4       5.4989      2.00000
      5      16.5073      0.00000
      6      21.6631      0.00000
      7      23.8800      0.00000
      8      24.2613      0.00000

 k-point    44 :       0.3846    0.3846    0.0000
  band No.  band energies     occupation 
      1      -6.4528      2.00000
      2       0.7906      2.00000
      3       3.8844      2.00000
      4       3.8844      2.00000
      5      13.8261      0.00000
      6      16.2035      0.00000
      7      24.9985      0.00000
      8      24.9986      0.00000

 k-point    45 :       0.4615    0.3846    0.0000
  band No.  band energies     occupation 
      1      -5.3015      2.00000
      2      -0.5053      2.00000
      3       3.1200      2.00000
      4       3.7097      2.00000
      5      14.3004      0.00000
      6      15.9510      0.00000
      7      25.4991      0.00000
      8      25.5881      0.00000

 k-point    46 :      -0.4615    0.3846    0.0000
  band No.  band energies     occupation 
      1      -3.9522      2.00000
      2      -1.6717      2.00000
      3       1.7703      2.00000
      4       3.8203      2.00000
      5      14.8083      0.00000
      6      17.2846      0.00000
      7      25.2546      0.00000
      8      25.7095      0.00000

 k-point    47 :      -0.3846    0.3846    0.0000
  band No.  band energies     occupation 
      1      -3.1359      2.00000
      2      -2.1760      2.00000
      3       0.5665      2.00000
      4       4.2071      2.00000
      5      15.2270      0.00000
      6      19.7352      0.00000
      7      24.3337      0.00000
      8      25.4177      0.00000

 k-point    48 :       0.4615    0.4615    0.0000
[...]
      8      26.2747      0.00000

 k-point    49 :      -0.4615    0.4615    0.0000
  band No.  band energies     occupation 
      1      -3.0163      2.00000
      2      -2.9566      2.00000
      3       2.8683      2.00000
      4       3.4995      2.00000
      5      14.5316      0.00000
      6      15.2206      0.00000
      7      26.1852      0.00000
      8      26.3147      0.00000

 k-point    50 :       0.2308    0.1538    0.0769
  band No.  band energies     occupation 
      1     -10.6647      2.00000
      2       6.0966      2.00000
      3       6.7243      2.00000
      4       8.5407      2.00000
      5      15.5423      0.00000
      6      18.1812      0.00000
      7      18.2654      0.00000
      8      22.9713      0.00000

 k-point    51 :       0.3077    0.1538    0.0769
  band No.  band energies     occupation 
      1      -9.8600      2.00000
      2       3.9111      2.00000
      3       5.8970      2.00000
      4       7.9681      2.00000
      5      16.2985      0.00000
      6      18.7530      0.00000
      7      19.2937      0.00000
      8      22.8407      0.00000

 k-point    52 :       0.3846    0.1538    0.0769
  band No.  band energies     occupation 
      1      -8.7522      2.00000
      2       1.4457      2.00000
      3       5.4618      2.00000
      4       7.2579      2.00000
      5      17.0994      0.00000
      6      18.9120      0.00000
      7      19.9828      0.00000
      8      23.2216      0.00000

 k-point    53 :       0.4615    0.1538    0.0769
  band No.  band energies     occupation 
      1      -7.3811      2.00000
      2      -0.9074      2.00000
      3       5.2605      2.00000
      4       6.6189      2.00000
      5      17.6172      0.00000
      6      18.7971      0.00000
      7      20.3207      0.00000
      8      24.1549      0.00000

 k-point    54 :      -0.4615    0.1538    0.0769
  band No.  band energies     occupation 
      1      -5.9490      2.00000
      2      -2.8493      2.00000
      3       5.2278      2.00000
      4       6.2113      2.00000
      5      17.8560      0.00000
      6      18.6385      0.00000
      7      20.4530      0.00000
      8      25.0366      0.00000

 k-point    55 :       0.3077    0.2308    0.0769
  band No.  band energies     occupation 
      1      -9.5916      2.00000
      2       4.4721      2.00000
      3       5.2951      2.00000
      4       6.8692      2.00000
      5      15.1194      0.00000
      6      20.0912      0.00000
      7      20.6371      0.00000
      8      21.1058      0.00000

 k-point    56 :       0.3846    0.2308    0.0769
  band No.  band energies     occupation 
      1      -8.5894      2.00000
      2       2.4587      2.00000
      3       4.5607      2.00000
      4       6.2211      2.00000
      5      15.9232      0.00000
      6      20.2926      0.00000
      7      20.9206      0.00000
      8      21.6763      0.00000

 k-point    57 :       0.4615    0.2308    0.0769
  band No.  band energies     occupation 
      1      -7.3098      2.00000
      2       0.2107      2.00000
      3       4.1928      2.00000
      4       5.5652      2.00000
      5      16.6427      0.00000
      6      20.1920      0.00000
      7      21.5895      0.00000
      8      22.3884      0.00000

 k-point    58 :      -0.4615    0.2308    0.0769
  band No.  band energies     occupation 
      1      -5.8623      2.00000
      2      -1.8367      2.00000
      3       3.8752      2.00000
      4       5.2448      2.00000
      5      17.0786      0.00000
      6      19.9562      0.00000
      7      22.2328      0.00000
      8      23.4737      0.00000

 k-point    59 :      -0.3846    0.2308    0.0769
  band No.  band energies     occupation 
      1      -5.1421      2.00000
      2      -2.7033      2.00000
      3       3.5422      2.00000
      4       5.4003      2.00000
      5      17.4679      0.00000
      6      19.5912      0.00000
      7      22.2684      0.00000
      8      24.6838      0.00000

 k-point    60 :      -0.3077    0.2308    0.0769
  band No.  band energies     occupation 
      1      -6.3550      2.00000
      2      -1.1648      2.00000
      3       3.3397      2.00000
      4       5.9055      2.00000
      5      17.9354      0.00000
      6      19.0781      0.00000
      7      22.0526      0.00000
      8      24.1451      0.00000

 k-point    61 :      -0.2308    0.2308    0.0769
  band No.  band energies     occupation 
      1      -7.7696      2.00000
      2       0.9999      2.00000
      3       3.3910      2.00000
      4       6.6182      2.00000
      5      18.1257      0.00000
      6      18.6064      0.00000
      7      21.6250      0.00000
      8      22.9110      0.00000

 k-point    62 :      -0.1538    0.2308    0.0769
  band No.  band energies     occupation 
      1      -8.9596      2.00000
      2       3.0156      2.00000
      3       4.0009      2.00000
      4       7.3836      2.00000
      5      17.1576      0.00000
      6      18.8759      0.00000
      7      20.6490      0.00000
      8      22.4511      0.00000

 k-point    63 :       0.3846    0.3077    0.0769
  band No.  band energies     occupation 
      1      -8.1130      2.00000
      2       2.7786      2.00000
      3       4.1355      2.00000
      4       5.0325      2.00000
      5      14.8000      0.00000
      6      18.8162      0.00000
      7      22.1510      0.00000
      8      22.9964      0.00000

 k-point    64 :       0.4615    0.3077    0.0769
  band No.  band energies     occupation 
      1      -6.9354      2.00000
      2       1.1033      2.00000
      3       3.2964      2.00000
      4       4.4547      2.00000
      5      15.6465      0.00000
      6      18.9684      0.00000
      7      22.2336      0.00000
      8      23.8663      0.00000

 k-point    65 :      -0.4615    0.3077    0.0769
  band No.  band energies     occupation 
      1      -5.5419      2.00000
      2      -0.7459      2.00000
      3       2.5163      2.00000
      4       4.2633      2.00000
      5      16.2338      0.00000
      6      20.3704      0.00000
      7      22.0540      0.00000
      8      24.1783      0.00000

 k-point    66 :      -0.3846    0.3077    0.0769
  band No.  band energies     occupation 
      1      -4.3817      2.00000
      2      -2.0839      2.00000
      3       1.8369      2.00000
      4       4.4999      2.00000
      5      16.6678      0.00000
      6      21.4379      0.00000
      7      22.6690      0.00000
      8      24.0455      0.00000

 k-point    67 :      -0.3077    0.3077    0.0769
  band No.  band energies     occupation 
      1      -5.1196      2.00000
      2      -1.1808      2.00000
      3       1.4251      2.00000
      4       5.0454      2.00000
      5      17.2127      0.00000
      6      20.7738      0.00000
      7      23.4351      0.00000
      8      24.1959      0.00000

 k-point    68 :      -0.2308    0.3077    0.0769
  band No.  band energies     occupation 
      1      -6.5221      2.00000
      2       0.4348      2.00000
      3       1.6428      2.00000
      4       5.7994      2.00000
      5      17.8859      0.00000
      6      19.5962      0.00000
      7      22.9610      0.00000
      8      23.3087      0.00000

 k-point    69 :       0.4615    0.3846    0.0769
  band No.  band energies     occupation 
      1      -6.2611      2.00000
      2       0.6916      2.00000
      3       3.3449      2.00000
      4       3.7074      2.00000
      5      14.7274      0.00000
      6      16.9783      0.00000
      7      24.1143      0.00000
      8      24.9919      0.00000

 k-point    70 :      -0.4615    0.3846    0.0769
  band No.  band energies     occupation 
      1      -4.9525      2.00000
      2      -0.5801      2.00000
      3       2.1580      2.00000
      4       3.5028      2.00000
      5      15.5482      0.00000
      6      17.7160      0.00000
      7      24.0221      0.00000
      8      25.3824      0.00000

 k-point    71 :      -0.3846    0.3846    0.0769
  band No.  band energies     occupation 
      1      -3.6385      2.00000
      2      -1.7071      2.00000
      3       0.9174      2.00000
      4       3.7438      2.00000
      5      15.9974      0.00000
      6      19.8512      0.00000
      7      23.5903      0.00000
      8      24.9776      0.00000

 k-point    72 :      -0.3077    0.3846    0.0769
  band No.  band energies     occupation 
      1      -3.8461      2.00000
      2      -1.4678      2.00000
      3       0.3476      2.00000
      4       4.2825      2.00000
      5      16.5178      0.00000
      6      22.2450      0.00000
      7      22.7134      0.00000
      8      24.2326      0.00000

 k-point    73 :      -0.4615    0.4615    0.0769
  band No.  band energies     occupation 
      1      -4.0927      2.00000
      2      -1.7097      2.00000
      3       2.9752      2.00000
      4       3.0702      2.00000
      5      15.0057      0.00000
      6      15.7266      0.00000
      7      25.6245      0.00000
      8      26.0402      0.00000

 k-point    74 :      -0.3846    0.4615    0.0769
  band No.  band energies     occupation 
      1      -2.8637      2.00000
      2      -2.6271      2.00000
      3       1.7605      2.00000
      4       3.2367      2.00000
      5      15.5564      0.00000
      6      17.2517      0.00000
      7      25.1732      0.00000
      8      25.5554      0.00000

 k-point    75 :       0.4615    0.3077    0.1538
  band No.  band energies     occupation 
      1      -7.5046      2.00000
      2       1.6420      2.00000
      3       2.8988      2.00000
      4       5.5080      2.00000
      5      16.9765      0.00000
      6      19.8068      0.00000
      7      21.0105      0.00000
      8      23.0711      0.00000

 k-point    76 :      -0.4615    0.3077    0.1538
  band No.  band energies     occupation 
      1      -6.1711      2.00000
      2      -0.0885      2.00000
      3       2.3704      2.00000
      4       4.7442      2.00000
      5      17.9625      0.00000
      6      19.5208      0.00000
      7      21.6496      0.00000
      8      23.9827      0.00000

 k-point    77 :      -0.3846    0.3077    0.1538
  band No.  band energies     occupation 
      1      -4.7956      2.00000
      2      -1.8249      2.00000
      3       2.3137      2.00000
      4       4.2447      2.00000
      5      18.2614      0.00000
      6      19.5063      0.00000
      7      22.9723      0.00000
      8      24.1258      0.00000

 k-point    78 :      -0.4615    0.3846    0.1538
  band No.  band energies     occupation 
      1      -5.7014      2.00000
      2       0.2413      2.00000
      3       2.1829      2.00000
      4       3.5799      2.00000
      5      16.9470      0.00000
      6      18.8687      0.00000
      7      22.0426      0.00000
      8      24.9154      0.00000

 k-point    79 :      -0.3846    0.3846    0.1538
  band No.  band energies     occupation 
      1      -4.3230      2.00000
      2      -1.0392      2.00000
      3       1.4838      2.00000
      4       3.0746      2.00000
      5      17.8443      0.00000
      6      20.0434      0.00000
      7      21.8161      0.00000
      8      24.6749      0.00000

 k-point    80 :      -0.3077    0.3846    0.1538
  band No.  band energies     occupation 
      1      -3.6813      2.00000
      2      -1.6461      2.00000
      3       0.9874      2.00000
      4       3.2403      2.00000
      5      18.2681      0.00000
      6      20.7985      0.00000
      7      22.7780      0.00000
      8      23.2599      0.00000

 k-point    81 :      -0.2308    0.3846    0.1538
  band No.  band energies     occupation 
      1      -4.8361      2.00000
      2      -0.5841      2.00000
      3       1.0382      2.00000
      4       3.8715      2.00000
      5      18.7771      0.00000
      6      19.7469      0.00000
      7      22.0439      0.00000
      8      24.4000      0.00000

 k-point    82 :      -0.3846    0.4615    0.1538
  band No.  band energies     occupation 
      1      -3.6431      2.00000
      2      -1.5396      2.00000
      3       1.9448      2.00000
      4       2.3325      2.00000
      5      17.2034      0.00000
      6      17.8294      0.00000
      7      23.7488      0.00000
      8      25.0787      0.00000

 k-point    83 :      -0.3077    0.4615    0.1538
  band No.  band energies     occupation 
      1      -2.7565      2.00000
      2      -2.0989      2.00000
      3       0.9536      2.00000
      4       2.5094      2.00000
      5      17.8096      0.00000
      6      19.9085      0.00000
      7      23.1140      0.00000
      8      23.6837      0.00000

 k-point    84 :      -0.3077    0.4615    0.2308
  band No.  band energies     occupation 
      1      -3.0709      2.00000
      2      -1.6238      2.00000
      3       1.0670      2.00000
      4       2.0444      2.00000
      5      19.8745      0.00000
      6      19.9523      0.00000
      7      21.7420      0.00000
      8      23.0458      0.00000


--------------------------------------------------------------------------------------------------------


 soft charge-density along one line, spin component           1
         0         1         2         3         4         5         6         7         8         9
 total charge-density along one line

 pseudopotential strength for first ion, spin component:           1
  9.435  12.530   0.000   0.000   0.000  -0.000  -0.000  -0.000
 12.530  16.637   0.000   0.000   0.000  -0.000  -0.000  -0.000
  0.000   0.000  -3.664  -0.000  -0.000   7.176   0.000   0.000
  0.000   0.000  -0.000  -3.664  -0.000   0.000   7.176   0.000
  0.000   0.000  -0.000  -0.000  -3.664   0.000   0.000   7.176
 -0.000  -0.000   7.176   0.000   0.000 -16.151  -0.000  -0.000
 -0.000  -0.000   0.000   7.176   0.000  -0.000 -16.151  -0.000
 -0.000  -0.000   0.000   0.000   7.176  -0.000  -0.000 -16.151
 total augmentation occupancy for first ion, spin component:           1
  7.363  -3.241   0.000   0.000   0.000   0.000   0.000   0.000
 -3.241   1.512  -0.000  -0.000  -0.000   0.000   0.000  -0.000
  0.000  -0.000   1.564   0.000  -0.000   0.129   0.000  -0.000
  0.000  -0.000   0.000   1.564   0.000   0.000   0.129  -0.000
  0.000  -0.000  -0.000   0.000   1.564  -0.000   0.000   0.129
  0.000   0.000   0.129   0.000  -0.000   0.012   0.000  -0.000
  0.000  -0.000   0.000   0.129  -0.000   0.000   0.012  -0.000
  0.000  -0.000  -0.000  -0.000   0.129  -0.000   0.000   0.012


------------------------ aborting loop because EDIFF is reached ----------------------------------------


    CHARGE:  cpu time    0.0046: real time    0.0047
    FORLOC:  cpu time    0.0001: real time    0.0001
    FORNL :  cpu time    0.0066: real time    0.0067
    STRESS:  cpu time    0.0527: real time    0.0528
    FORCOR:  cpu time    0.0024: real time    0.0024
    FORHAR:  cpu time    0.0007: real time    0.0007
    MIXING:  cpu time    0.0002: real time    0.0002
    OFIELD:  cpu time    0.0000: real time    0.0000

  FORCE on cell =-STRESS in cart. coord.  units (eV):
  Direction    XX          YY          ZZ          XY          YZ          ZX
  --------------------------------------------------------------------------------------
  Alpha Z    28.88721    28.88721    28.88721
  Ewald    -115.88240  -115.88240  -115.88240    -0.00000    -0.00000    -0.00000
  Hartree     8.81392     8.81392     8.81392    -0.00000    -0.00000    -0.00000
  E(xc)     -30.41959   -30.41959   -30.41959     0.00000     0.00000     0.00000
  Local     -11.07967   -11.07967   -11.07967     0.00003     0.00003     0.00003
  n-local    -7.21088    -6.51405    -7.81684    -0.60020     0.10064    -0.06641
  augment    -0.72149    -0.72149    -0.72149    -0.00003    -0.00003    -0.00003
  Kinetic   130.18143   123.82315   128.95917     5.13887    -1.14227     1.82880
  Fock        0.00000     0.00000     0.00000     0.00000     0.00000     0.00000
  -------------------------------------------------------------------------------------
  Total       0.07197     0.07197     0.07197     0.00000     0.00000    -0.00000
  in kB      10.13702    10.13702    10.13702     0.00000     0.00000    -0.00000
  external pressure =       10.14 kB  Pullay stress =        0.00 kB


 VOLUME and BASIS-vectors are now :
 -----------------------------------------------------------------------------
  energy-cutoff  :      550.00
  volume of cell :       11.37
      direct lattice vectors                 reciprocal lattice vectors
     0.000000000  1.785000000  1.785000000    -0.280112045  0.280112045  0.280112045
     1.785000000  0.000000000  1.785000000     0.280112045 -0.280112045  0.280112045
     1.785000000  1.785000000  0.000000000     0.280112045  0.280112045 -0.280112045

  length of vectors
     2.524371209  2.524371209  2.524371209     0.485168293  0.485168293  0.485168293


 FORCES acting on ions
    electron-ion (+dipol)            ewald-force                    non-local-force                 convergence-correction
 -----------------------------------------------------------------------------------------------
   0.195E-05 0.195E-05 0.738E-06   -.397E-14 -.133E-14 -.370E-14   -.234E-15 -.193E-15 -.181E-15   0.710E-08 0.710E-08 0.710E-08
   -.195E-05 -.195E-05 -.738E-06   0.363E-14 0.160E-14 0.300E-14   0.202E-15 0.188E-15 0.181E-15   -.710E-08 -.710E-08 -.710E-08
 -----------------------------------------------------------------------------------------------
   -.655E-13 -.465E-13 -.416E-13   -.344E-15 0.264E-15 -.707E-15   -.321E-16 -.430E-17 -.694E-19   -.370E-15 0.404E-14 -.350E-14


 POSITION                                       TOTAL-FORCE (eV/Angst)
 -----------------------------------------------------------------------------------
      0.00000      0.00000      0.00000        -0.000000     -0.000000      0.000000
      0.89250      0.89250      0.89250         0.000000      0.000000     -0.000000
 -----------------------------------------------------------------------------------
    total drift:                               -0.000000     -0.000000     -0.000000


--------------------------------------------------------------------------------------------------------



  FREE ENERGIE OF THE ION-ELECTRON SYSTEM (eV)
  ---------------------------------------------------
  free  energy   TOTEN  =       -18.18677613 eV

  energy  without entropy=      -18.18677613  energy(sigma->0) =      -18.18677613



--------------------------------------------------------------------------------------------------------


    POTLOK:  cpu time    0.0041: real time    0.0041


--------------------------------------------------------------------------------------------------------


     LOOP+:  cpu time    3.4642: real time    3.6115
    4ORBIT:  cpu time    0.0000: real time    0.0000

 total amount of memory used by VASP on root node    30813. kBytes
========================================================================

   base      :      30000. kBytes
   nonl-proj :        411. kBytes
   fftplans  :         71. kBytes
   grid      :        103. kBytes
   one-center:          3. kBytes
   wavefun   :        225. kBytes

  
  
 General timing and accounting informations for this job:
 ========================================================
  
                  Total CPU time used (sec):        3.963
                            User time (sec):        3.695
                          System time (sec):        0.268
                         Elapsed time (sec):        5.616
  
                   Maximum memory used (kb):       87952.
                   Average memory used (kb):           0.
  
                          Minor page faults:        12973
                          Major page faults:            7
                 Voluntary context switches:         8028
