
                                 *****************
                                 * O   R   C   A *
                                 *****************

                                            #,                                       
                                            ###                                      
                                            ####                                     
                                            #####                                    
                                            ######                                   
                                           ########,                                 
                                     ,,################,,,,,                         
                               ,,#################################,,                 
                          ,,##########################################,,             
                       ,#########################################, ''#####,          
                    ,#############################################,,   '####,        
                  ,##################################################,,,,####,       
                ,###########''''           ''''###############################       
              ,#####''   ,,,,##########,,,,          '''####'''          '####       
            ,##' ,,,,###########################,,,                        '##       
           ' ,,###''''                  '''############,,,                           
         ,,##''                                '''############,,,,        ,,,,,,###''
      ,#''                                            '''#######################'''  
     '                                                          ''''####''''         
             ,#######,   #######,   ,#######,      ##                                
            ,#'     '#,  ##    ##  ,#'     '#,    #''#        ######   ,####,        
            ##       ##  ##   ,#'  ##            #'  '#       #        #'  '#        
            ##       ##  #######   ##           ,######,      #####,   #    #        
            '#,     ,#'  ##    ##  '#,     ,#' ,#      #,         ##   #,  ,#        
             '#######'   ##     ##  '#######'  #'      '#     #####' # '####'        



                  #######################################################
                  #                        -***-                        #
                  #          Department of theory and spectroscopy      #
                  #    Directorship and core code : Frank Neese         #
                  #        Max Planck Institute fuer Kohlenforschung    #
                  #                Kaiser Wilhelm Platz 1               #
                  #                 D-45470 Muelheim/Ruhr               #
                  #                      Germany                        #
                  #                                                     #
                  #                  All rights reserved                #
                  #                        -***-                        #
                  #######################################################


                         Program Version 5.0.4 -  RELEASE  -


 With contributions from (in alphabetic order):
   Daniel Aravena         : Magnetic Suceptibility
   Michael Atanasov       : Ab Initio Ligand Field Theory (pilot matlab implementation)
   Alexander A. Auer      : GIAO ZORA, VPT2 properties, NMR spectrum
   Ute Becker             : Parallelization
   Giovanni Bistoni       : ED, misc. LED, open-shell LED, HFLD
   Martin Brehm           : Molecular dynamics
   Dmytro Bykov           : SCF Hessian
   Vijay G. Chilkuri      : MRCI spin determinant printing, contributions to CSF-ICE
   Dipayan Datta          : RHF DLPNO-CCSD density
   Achintya Kumar Dutta   : EOM-CC, STEOM-CC
   Dmitry Ganyushin       : Spin-Orbit,Spin-Spin,Magnetic field MRCI
   Miquel Garcia          : C-PCM and meta-GGA Hessian, CC/C-PCM, Gaussian charge scheme
   Yang Guo               : DLPNO-NEVPT2, F12-NEVPT2, CIM, IAO-localization
   Andreas Hansen         : Spin unrestricted coupled pair/coupled cluster methods
   Benjamin Helmich-Paris : MC-RPA, TRAH-SCF, COSX integrals
   Lee Huntington         : MR-EOM, pCC
   Robert Izsak           : Overlap fitted RIJCOSX, COSX-SCS-MP3, EOM
   Marcus Kettner         : VPT2
   Christian Kollmar      : KDIIS, OOCD, Brueckner-CCSD(T), CCSD density, CASPT2, CASPT2-K
   Simone Kossmann        : Meta GGA functionals, TD-DFT gradient, OOMP2, MP2 Hessian
   Martin Krupicka        : Initial AUTO-CI
   Lucas Lang             : DCDCAS
   Marvin Lechner         : AUTO-CI (C++ implementation), FIC-MRCC
   Dagmar Lenk            : GEPOL surface, SMD
   Dimitrios Liakos       : Extrapolation schemes; Compound Job, initial MDCI parallelization
   Dimitrios Manganas     : Further ROCIS development; embedding schemes
   Dimitrios Pantazis     : SARC Basis sets
   Anastasios Papadopoulos: AUTO-CI, single reference methods and gradients
   Taras Petrenko         : DFT Hessian,TD-DFT gradient, ASA, ECA, R-Raman, ABS, FL, XAS/XES, NRVS
   Peter Pinski           : DLPNO-MP2, DLPNO-MP2 Gradient
   Christoph Reimann      : Effective Core Potentials
   Marius Retegan         : Local ZFS, SOC
   Christoph Riplinger    : Optimizer, TS searches, QM/MM, DLPNO-CCSD(T), (RO)-DLPNO pert. Triples
   Tobias Risthaus        : Range-separated hybrids, TD-DFT gradient, RPA, STAB
   Michael Roemelt        : Original ROCIS implementation
   Masaaki Saitow         : Open-shell DLPNO-CCSD energy and density
   Barbara Sandhoefer     : DKH picture change effects
   Avijit Sen             : IP-ROCIS
   Kantharuban Sivalingam : CASSCF convergence, NEVPT2, FIC-MRCI
   Bernardo de Souza      : ESD, SOC TD-DFT
   Georgi Stoychev        : AutoAux, RI-MP2 NMR, DLPNO-MP2 response
   Willem Van den Heuvel  : Paramagnetic NMR
   Boris Wezisla          : Elementary symmetry handling
   Frank Wennmohs         : Technical directorship


 We gratefully acknowledge several colleagues who have allowed us to
 interface, adapt or use parts of their codes:
   Stefan Grimme, W. Hujo, H. Kruse, P. Pracht,  : VdW corrections, initial TS optimization,
                  C. Bannwarth, S. Ehlert          DFT functionals, gCP, sTDA/sTD-DF
   Ed Valeev, F. Pavosevic, A. Kumar             : LibInt (2-el integral package), F12 methods
   Garnet Chan, S. Sharma, J. Yang, R. Olivares  : DMRG
   Ulf Ekstrom                                   : XCFun DFT Library
   Mihaly Kallay                                 : mrcc  (arbitrary order and MRCC methods)
   Jiri Pittner, Ondrej Demel                    : Mk-CCSD
   Frank Weinhold                                : gennbo (NPA and NBO analysis)
   Christopher J. Cramer and Donald G. Truhlar   : smd solvation model
   Lars Goerigk                                  : TD-DFT with DH, B97 family of functionals
   V. Asgeirsson, H. Jonsson                     : NEB implementation
   FAccTs GmbH                                   : IRC, NEB, NEB-TS, DLPNO-Multilevel, CI-OPT
                                                   MM, QMMM, 2- and 3-layer-ONIOM, Crystal-QMMM,
                                                   LR-CPCM, SF, NACMEs, symmetry and pop. for TD-DFT,
                                                   nearIR, NL-DFT gradient (VV10), updates on ESD,
                                                   ML-optimized integration grids
   S Lehtola, MJT Oliveira, MAL Marques          : LibXC Library
   Liviu Ungur et al                             : ANISO software


 Your calculation uses the libint2 library for the computation of 2-el integrals
 For citations please refer to: http://libint.valeyev.net

 Your ORCA version has been built with support for libXC version: 5.1.0
 For citations please refer to: https://tddft.org/programs/libxc/

 This ORCA versions uses:
   CBLAS   interface :  Fast vector & matrix operations
   LAPACKE interface :  Fast linear algebra routines
   SCALAPACK package :  Parallel linear algebra routines
   Shared memory     :  Shared parallel matrices
   BLAS/LAPACK       :  OpenBLAS 0.3.15  USE64BITINT DYNAMIC_ARCH NO_AFFINITY Prescott SINGLE_THREADED
        Core in use  :  Prescott
   Copyright (c) 2011-2014, The OpenBLAS Project




***************************************
The coordinates will be read from file: molecule.xyz
***************************************


Your calculation utilizes the atom-pairwise dispersion correction
with the Becke-Johnson damping scheme (D3BJ)
Cite in your paper:
S.Grimme, S.Ehrlich, L.Goerigk, J Comput Chem, (2011), 32, 1456–1465 
S.Grimme, J.Antony, S.Ehrlich and H.Krieg, J.Chem.Phys., 132, (2010), 154104 
   

================================================================================

----- Orbital basis set information -----
Your calculation utilizes the basis: def2-TZVP
   F. Weigend and R. Ahlrichs, Phys. Chem. Chem. Phys. 7, 3297 (2005).

----- AuxJ basis set information -----
Your calculation utilizes the auxiliary basis: def2/J
   F. Weigend, Phys. Chem. Chem. Phys. 8, 1057 (2006).

================================================================================
                                        WARNINGS
                       Please study these warnings very carefully!
================================================================================


WARNING: Geometry Optimization
  ===> : Switching off AutoStart
         For restart on a previous wavefunction, please use MOREAD

INFO   : the flag for use of the SHARK integral package has been found!

================================================================================
                                       INPUT FILE
================================================================================
NAME = molecule.inp
|  1> !PBE D3 DEF2-TZVP OPT
|  2> 
|  3> %pal
|  4>    nprocs 2
|  5> end
|  6> 
|  7> * XYZFile 0 1 molecule.xyz
|  8> 
|  9>                          ****END OF INPUT****
================================================================================

                       *****************************
                       * Geometry Optimization Run *
                       *****************************

Geometry optimization settings:
Update method            Update   .... BFGS
Choice of coordinates    CoordSys .... Z-matrix Internals
Initial Hessian          InHess   .... Almoef's Model

Convergence Tolerances:
Energy Change            TolE     ....  5.0000e-06 Eh
Max. Gradient            TolMAXG  ....  3.0000e-04 Eh/bohr
RMS Gradient             TolRMSG  ....  1.0000e-04 Eh/bohr
Max. Displacement        TolMAXD  ....  4.0000e-03 bohr
RMS Displacement         TolRMSD  ....  2.0000e-03 bohr
Strict Convergence                ....  False
------------------------------------------------------------------------------
                        ORCA OPTIMIZATION COORDINATE SETUP
------------------------------------------------------------------------------

The optimization will be done in new redundant internal coordinates
Making redundant internal coordinates   ...  (new redundants) done
Evaluating the initial hessian          ...  (Almloef) done
Evaluating the coordinates              ...  done
Calculating the B-matrix                .... done
Calculating the G-matrix                .... done
Diagonalizing the G-matrix              .... done
The first mode is                       ....    0
The number of degrees of freedom        ....    1

    -----------------------------------------------------------------
                    Redundant Internal Coordinates


    -----------------------------------------------------------------
         Definition                    Initial Value    Approx d2E/dq
    -----------------------------------------------------------------
      1. B(O   1,C   0)                  1.1365         1.420127   
    -----------------------------------------------------------------

Number of atoms                         .... 2
Number of degrees of freedom            .... 1

         *************************************************************
         *                GEOMETRY OPTIMIZATION CYCLE   1            *
         *************************************************************
---------------------------------
CARTESIAN COORDINATES (ANGSTROEM)
---------------------------------
  C      0.431753    0.000000    0.000000
  O      1.568247    0.000000    0.000000

----------------------------
CARTESIAN COORDINATES (A.U.)
----------------------------
  NO LB      ZA    FRAG     MASS         X           Y           Z
   0 C     6.0000    0    12.011    0.815894    0.000000    0.000000
   1 O     8.0000    0    15.999    2.963558    0.000000    0.000000

--------------------------------
INTERNAL COORDINATES (ANGSTROEM)
--------------------------------
 C      0   0   0     0.000000000000     0.00000000     0.00000000
 O      1   0   0     1.136494496293     0.00000000     0.00000000

---------------------------
INTERNAL COORDINATES (A.U.)
---------------------------
 C      0   0   0     0.000000000000     0.00000000     0.00000000
 O      1   0   0     2.147663350703     0.00000000     0.00000000

---------------------
BASIS SET INFORMATION
---------------------
There are 2 groups of distinct atoms

 Group   1 Type C   : 11s6p2d1f contracted to 5s3p2d1f pattern {62111/411/11/1}
 Group   2 Type O   : 11s6p2d1f contracted to 5s3p2d1f pattern {62111/411/11/1}

Atom   0C    basis set group =>   1
Atom   1O    basis set group =>   2
---------------------------------
AUXILIARY/J BASIS SET INFORMATION
---------------------------------
There are 2 groups of distinct atoms

 Group   1 Type C   : 12s5p4d2f1g contracted to 6s4p3d1f1g pattern {711111/2111/211/2/1}
 Group   2 Type O   : 12s5p4d2f1g contracted to 6s4p3d1f1g pattern {711111/2111/211/2/1}

Atom   0C    basis set group =>   1
Atom   1O    basis set group =>   2


           ************************************************************
           *        Program running with 2 parallel MPI-processes     *
           *              working on a common directory               *
           ************************************************************
------------------------------------------------------------------------------
                           ORCA GTO INTEGRAL CALCULATION
                           -- RI-GTO INTEGRALS CHOSEN --
------------------------------------------------------------------------------
------------------------------------------------------------------------------
                   ___                                                        
                  /   \      - P O W E R E D   B Y -                         
                 /     \                                                     
                 |  |  |   _    _      __       _____    __    __             
                 |  |  |  | |  | |    /  \     |  _  \  |  |  /  |          
                  \  \/   | |  | |   /    \    | | | |  |  | /  /          
                 / \  \   | |__| |  /  /\  \   | |_| |  |  |/  /          
                |  |  |   |  __  | /  /__\  \  |    /   |      \           
                |  |  |   | |  | | |   __   |  |    \   |  |\   \          
                \     /   | |  | | |  |  |  |  | |\  \  |  | \   \       
                 \___/    |_|  |_| |__|  |__|  |_| \__\ |__|  \__/        
                                                                              
                      - O R C A' S   B I G   F R I E N D -                    
                                      &                                       
                       - I N T E G R A L  F E E D E R -                       
                                                                              
 v1 FN, 2020, v2 2021                                                         
------------------------------------------------------------------------------


Reading SHARK input file molecule.SHARKINP.tmp ... ok
----------------------
SHARK INTEGRAL PACKAGE
----------------------

Number of atoms                             ...      2
Number of basis functions                   ...     62
Number of shells                            ...     22
Maximum angular momentum                    ...      3
Integral batch strategy                     ... SHARK/LIBINT Hybrid
RI-J (if used) integral strategy            ... SPLIT-RIJ (Revised 2003 algorithm where possible)
Printlevel                                  ...      1
Contraction scheme used                     ... SEGMENTED contraction
Coulomb Range Separation                    ... NOT USED
Exchange Range Separation                   ... NOT USED
Finite Nucleus Model                        ... NOT USED
Auxiliary Coulomb fitting basis             ... AVAILABLE
   # of basis functions in Aux-J            ...     98
   # of shells in Aux-J                     ...     30
   Maximum angular momentum in Aux-J        ...      4
Auxiliary J/K fitting basis                 ... NOT available
Auxiliary Correlation fitting basis         ... NOT available
Auxiliary 'external' fitting basis          ... NOT available
Integral threshold                          ...     2.500000e-11
Primitive cut-off                           ...     2.500000e-12
Primitive pair pre-selection threshold      ...     2.500000e-12

Calculating pre-screening integrals         ... done (  0.0 sec) Dimension = 22
Organizing shell pair data                  ... done (  0.0 sec)
Shell pair information
Total number of shell pairs                 ...       253
Shell pairs after pre-screening             ...       252
Total number of primitive shell pairs       ...       864
Primitive shell pairs kept                  ...       795
          la=0 lb=0:     54 shell pairs
          la=1 lb=0:     60 shell pairs
          la=1 lb=1:     21 shell pairs
          la=2 lb=0:     40 shell pairs
          la=2 lb=1:     24 shell pairs
          la=2 lb=2:     10 shell pairs
          la=3 lb=0:     20 shell pairs
          la=3 lb=1:     12 shell pairs
          la=3 lb=2:      8 shell pairs
          la=3 lb=3:      3 shell pairs

Calculating one electron integrals          ... done (  0.0 sec)
Calculating RI/J V-Matrix + Cholesky decomp.... done (  0.0 sec)
Calculating Nuclear repulsion               ... done (  0.0 sec) ENN=     22.349871540285 Eh

SHARK setup successfully completed in   0.1 seconds

Maximum memory used throughout the entire GTOINT-calculation: 13.9 MB


           ************************************************************
           *        Program running with 2 parallel MPI-processes     *
           *              working on a common directory               *
           ************************************************************
-------------------------------------------------------------------------------
                                 ORCA SCF
-------------------------------------------------------------------------------

------------
SCF SETTINGS
------------
Hamiltonian:
 Density Functional     Method          .... DFT(GTOs)
 Exchange Functional    Exchange        .... PBE
   PBE kappa parameter   XKappa         ....  0.804000
   PBE mue parameter    XMuePBE         ....  0.219520
 Correlation Functional Correlation     .... PBE
   PBE beta parameter  CBetaPBE         ....  0.066725
 LDA part of GGA corr.  LDAOpt          .... PW91-LDA
 Gradients option       PostSCFGGA      .... off
   Density functional embedding theory  .... OFF
   NL short-range parameter             ....  6.400000
 RI-approximation to the Coulomb term is turned on
   Number of AuxJ basis functions       .... 98


General Settings:
 Integral files         IntName         .... molecule
 Hartree-Fock type      HFTyp           .... RHF
 Total Charge           Charge          ....    0
 Multiplicity           Mult            ....    1
 Number of Electrons    NEL             ....   14
 Basis Dimension        Dim             ....   62
 Nuclear Repulsion      ENuc            ....     22.3498715403 Eh

Convergence Acceleration:
 DIIS                   CNVDIIS         .... on
   Start iteration      DIISMaxIt       ....    12
   Startup error        DIISStart       ....  0.200000
   # of expansion vecs  DIISMaxEq       ....     5
   Bias factor          DIISBfac        ....   1.050
   Max. coefficient     DIISMaxC        ....  10.000
 Trust-Rad. Augm. Hess. CNVTRAH         .... auto
   Auto Start mean grad. ratio tolernc. ....  1.125000
   Auto Start start iteration           ....    20
   Auto Start num. interpolation iter.  ....    10
   Max. Number of Micro iterations      ....    16
   Max. Number of Macro iterations      .... Maxiter - #DIIS iter
   Number of Davidson start vectors     ....     2
   Converg. threshold I  (grad. norm)   ....   1.000e-05
   Converg. threshold II (energy diff.) ....   1.000e-08
   Grad. Scal. Fac. for Micro threshold ....   0.100
   Minimum threshold for Micro iter.    ....   0.010
   NR start threshold (gradient norm)   ....   0.001
   Initial trust radius                 ....   0.400
   Minimum AH scaling param. (alpha)    ....   1.000
   Maximum AH scaling param. (alpha)    .... 1000.000
   Orbital update algorithm             .... Taylor
   White noise on init. David. guess    .... on
   Maximum white noise                  ....   0.010
   Quad. conv. algorithm                .... NR
 SOSCF                  CNVSOSCF        .... on
   Start iteration      SOSCFMaxIt      ....   150
   Startup grad/error   SOSCFStart      ....  0.003300
 Level Shifting         CNVShift        .... on
   Level shift para.    LevelShift      ....    0.2500
   Turn off err/grad.   ShiftErr        ....    0.0010
 Zerner damping         CNVZerner       .... off
 Static damping         CNVDamp         .... on
   Fraction old density DampFac         ....    0.7000
   Max. Damping (<1)    DampMax         ....    0.9800
   Min. Damping (>=0)   DampMin         ....    0.0000
   Turn off err/grad.   DampErr         ....    0.1000
 Fernandez-Rico         CNVRico         .... off

SCF Procedure:
 Maximum # iterations   MaxIter         ....   125
 SCF integral mode      SCFMode         .... Direct
   Integral package                     .... SHARK and LIBINT hybrid scheme
 Reset frequency        DirectResetFreq ....    20
 Integral Threshold     Thresh          ....  2.500e-11 Eh
 Primitive CutOff       TCut            ....  2.500e-12 Eh

Convergence Tolerance:
 Convergence Check Mode ConvCheckMode   .... Total+1el-Energy
 Convergence forced     ConvForced      .... 0
 Energy Change          TolE            ....  1.000e-08 Eh
 1-El. energy change                    ....  1.000e-05 Eh
 Orbital Gradient       TolG            ....  1.000e-05
 Orbital Rotation angle TolX            ....  1.000e-05
 DIIS Error             TolErr          ....  5.000e-07


Diagonalization of the overlap matrix:
Smallest eigenvalue                        ... 1.227e-03
Time for diagonalization                   ...    0.001 sec
Threshold for overlap eigenvalues          ... 1.000e-08
Number of eigenvalues below threshold      ... 0
Time for construction of square roots      ...    0.000 sec
Total time needed                          ...    0.001 sec

Time for model grid setup =    0.007 sec

------------------------------
INITIAL GUESS: MODEL POTENTIAL
------------------------------
Loading Hartree-Fock densities                     ... done
Calculating cut-offs                               ... done
Initializing the effective Hamiltonian             ... done
Setting up the integral package (SHARK)            ... done
Starting the Coulomb interaction                   ... done (   0.0 sec)
Reading the grid                                   ... done
Mapping shells                                     ... done
Starting the XC term evaluation                    ... done (   0.0 sec)
  promolecular density results
     # of electrons  =     14.000016309
     EX              =    -13.170001317
     EC              =     -0.445004954
     EX+EC           =    -13.615006271
Transforming the Hamiltonian                       ... done (   0.0 sec)
Diagonalizing the Hamiltonian                      ... done (   0.0 sec)
Back transforming the eigenvectors                 ... done (   0.0 sec)
Now organizing SCF variables                       ... done
                      ------------------
                      INITIAL GUESS DONE (   0.0 sec)
                      ------------------
-------------------
DFT GRID GENERATION
-------------------

General Integration Accuracy     IntAcc      ... 4.388
Radial Grid Type                 RadialGrid  ... OptM3 with GC (2021)
Angular Grid (max. ang.)         AngularGrid ... 4 (Lebedev-302)
Angular grid pruning method      GridPruning ... 4 (adaptive)
Weight generation scheme         WeightScheme... Becke
Basis function cutoff            BFCut       ... 1.0000e-11
Integration weight cutoff        WCut        ... 1.0000e-14
Angular grids for H and He will be reduced by one unit
Partially contracted basis set               ... off
Rotationally invariant grid construction     ... off

Total number of grid points                  ...    12255
Total number of batches                      ...      192
Average number of points per batch           ...       63
Average number of grid points per atom       ...     6128
Time for grid setup =    0.045 sec

--------------
SCF ITERATIONS
--------------
ITER       Energy         Delta-E        Max-DP      RMS-DP      [F,P]     Damp
               ***  Starting incremental Fock matrix formation  ***
  0   -113.1976315036   0.000000000000 0.04128991  0.00180226  0.2002266 0.7000
  1   -113.2172792665  -0.019647762878 0.01644477  0.00077193  0.0427872 0.7000
                               ***Turning on DIIS***
  2   -113.2204857563  -0.003206489742 0.04176742  0.00137571  0.0314734 0.0000
  3   -113.2337972474  -0.013311491180 0.01329968  0.00049836  0.0212743 0.0000
  4   -113.2343229865  -0.000525739057 0.00390573  0.00015391  0.0059265 0.0000
                      *** Initiating the SOSCF procedure ***
                           *** Shutting down DIIS ***
                      *** Re-Reading the Fockian *** 
                      *** Removing any level shift *** 
ITER      Energy       Delta-E        Grad      Rot      Max-DP    RMS-DP
  5   -113.23436184  -0.0000388524  0.000397  0.000397  0.001664  0.000052
               *** Restarting incremental Fock matrix formation ***
  6   -113.23436456  -0.0000027237  0.000106  0.000188  0.000386  0.000017
  7   -113.23436455   0.0000000122  0.000141  0.000114  0.000308  0.000011
  8   -113.23436461  -0.0000000547  0.000086  0.000053  0.000154  0.000009
  9   -113.23436464  -0.0000000349  0.000035  0.000033  0.000061  0.000003
 10   -113.23436465  -0.0000000128  0.000006  0.000009  0.000042  0.000001
                 **** Energy Check signals convergence ****
              ***Rediagonalizing the Fockian in SOSCF/NRSCF***

               *****************************************************
               *                     SUCCESS                       *
               *           SCF CONVERGED AFTER  11 CYCLES          *
               *****************************************************


----------------
TOTAL SCF ENERGY
----------------

Total Energy       :         -113.23436465 Eh           -3081.26371 eV

Components:
Nuclear Repulsion  :           22.34987154 Eh             608.17092 eV
Electronic Energy  :         -135.58423619 Eh           -3689.43463 eV
One Electron Energy:         -198.04771309 Eh           -5389.15225 eV
Two Electron Energy:           62.46347689 Eh            1699.71762 eV

Virial components:
Potential Energy   :         -226.08459782 Eh           -6152.07467 eV
Kinetic Energy     :          112.85023317 Eh            3070.81096 eV
Virial Ratio       :            2.00340391


DFT components:
N(Alpha)           :        7.000002562804 electrons
N(Beta)            :        7.000002562804 electrons
N(Total)           :       14.000005125609 electrons
E(X)               :      -13.310141773220 Eh       
E(C)               :       -0.448385573057 Eh       
E(XC)              :      -13.758527346277 Eh       
DFET-embed. en.    :        0.000000000000 Eh       

---------------
SCF CONVERGENCE
---------------

  Last Energy change         ...   -3.2649e-10  Tolerance :   1.0000e-08
  Last MAX-Density change    ...    7.7216e-06  Tolerance :   1.0000e-07
  Last RMS-Density change    ...    2.6997e-07  Tolerance :   5.0000e-09
  Last Orbital Gradient      ...    1.7430e-06  Tolerance :   1.0000e-05
  Last Orbital Rotation      ...    1.2542e-06  Tolerance :   1.0000e-05

             **** THE GBW FILE WAS UPDATED (molecule.gbw) ****
             **** DENSITY molecule.scfp WAS UPDATED ****
             **** ENERGY FILE WAS UPDATED (molecule.en.tmp) ****
             **** THE GBW FILE WAS UPDATED (molecule.gbw) ****
             **** DENSITY molecule.scfp WAS UPDATED ****
----------------
ORBITAL ENERGIES
----------------

  NO   OCC          E(Eh)            E(eV) 
   0   2.0000     -18.855999      -513.0978 
   1   2.0000      -9.997858      -272.0556 
   2   2.0000      -1.071739       -29.1635 
   3   2.0000      -0.517910       -14.0930 
   4   2.0000      -0.432107       -11.7582 
   5   2.0000      -0.432107       -11.7582 
   6   2.0000      -0.331529        -9.0214 
   7   0.0000      -0.074129        -2.0172 
   8   0.0000      -0.074129        -2.0172 
   9   0.0000       0.096466         2.6250 
  10   0.0000       0.165346         4.4993 
  11   0.0000       0.191592         5.2135 
  12   0.0000       0.191592         5.2135 
  13   0.0000       0.337200         9.1757 
  14   0.0000       0.442451        12.0397 
  15   0.0000       0.442451        12.0397 
  16   0.0000       0.513488        13.9727 
  17   0.0000       0.595250        16.1976 
  18   0.0000       0.595250        16.1976 
  19   0.0000       0.661560        18.0020 
  20   0.0000       0.802856        21.8468 
  21   0.0000       0.802856        21.8468 
  22   0.0000       1.105758        30.0892 
  23   0.0000       1.223932        33.3049 
  24   0.0000       1.306069        35.5399 
  25   0.0000       1.306069        35.5399 
  26   0.0000       1.352241        36.7964 
  27   0.0000       1.429901        38.9096 
  28   0.0000       1.429901        38.9096 
  29   0.0000       1.811666        49.2979 
  30   0.0000       1.811666        49.2979 
  31   0.0000       2.083448        56.6935 
  32   0.0000       2.472450        67.2788 
  33   0.0000       2.472450        67.2788 
  34   0.0000       2.558437        69.6186 
  35   0.0000       2.558437        69.6186 
  36   0.0000       2.721577        74.0579 
  37   0.0000       2.721578        74.0579 
  38   0.0000       2.746725        74.7422 
  39   0.0000       2.850835        77.5752 
  40   0.0000       2.850835        77.5752 
  41   0.0000       2.899742        78.9060 
  42   0.0000       2.899742        78.9060 
  43   0.0000       2.977913        81.0331 
  44   0.0000       3.532844        96.1336 
  45   0.0000       3.532844        96.1336 
  46   0.0000       3.734712       101.6267 
  47   0.0000       4.044318       110.0515 
  48   0.0000       4.953897       134.8024 
  49   0.0000       4.953897       134.8024 
  50   0.0000       5.342190       145.3684 
  51   0.0000       5.342192       145.3684 
  52   0.0000       6.023166       163.8987 
  53   0.0000       6.023166       163.8987 
  54   0.0000       6.088622       165.6798 
  55   0.0000       6.088638       165.6803 
  56   0.0000       6.302131       171.4897 
  57   0.0000       6.536754       177.8741 
  58   0.0000       6.536754       177.8741 
  59   0.0000       6.882622       187.2857 
  60   0.0000      21.573917       587.0561 
  61   0.0000      43.055381      1171.5965 

                    ********************************
                    * MULLIKEN POPULATION ANALYSIS *
                    ********************************

-----------------------
MULLIKEN ATOMIC CHARGES
-----------------------
   0 C :   -0.037652
   1 O :    0.037652
Sum of atomic charges:   -0.0000000

--------------------------------
MULLIKEN REDUCED ORBITAL CHARGES
--------------------------------
  0 C s       :     3.898598  s :     3.898598
      pz      :     0.534313  p :     2.023065
      px      :     0.954438
      py      :     0.534313
      dz2     :     0.007941  d :     0.103520
      dxz     :     0.035877
      dyz     :     0.000000
      dx2y2   :     0.023824
      dxy     :     0.035877
      f0      :     0.001709  f :     0.012470
      f+1     :     0.001257
      f-1     :     0.000285
      f+2     :     0.002849
      f-2     :    -0.000000
      f+3     :     0.002096
      f-3     :     0.004274
  1 O s       :     3.758292  s :     3.758292
      pz      :     1.413372  p :     4.173105
      px      :     1.346361
      py      :     1.413372
      dz2     :     0.001732  d :     0.029282
      dxz     :     0.011177
      dyz     :     0.000000
      dx2y2   :     0.005196
      dxy     :     0.011177
      f0      :     0.000263  f :     0.001669
      f+1     :     0.000100
      f-1     :     0.000044
      f+2     :     0.000439
      f-2     :     0.000000
      f+3     :     0.000166
      f-3     :     0.000658


                     *******************************
                     * LOEWDIN POPULATION ANALYSIS *
                     *******************************

----------------------
LOEWDIN ATOMIC CHARGES
----------------------
   0 C :   -0.259869
   1 O :    0.259869

-------------------------------
LOEWDIN REDUCED ORBITAL CHARGES
-------------------------------
  0 C s       :     3.503963  s :     3.503963
      pz      :     0.567544  p :     2.357383
      px      :     1.222295
      py      :     0.567544
      dz2     :     0.037233  d :     0.315912
      dxz     :     0.083490
      dyz     :     0.000000
      dx2y2   :     0.111698
      dxy     :     0.083490
      f0      :     0.010608  f :     0.082611
      f+1     :     0.009763
      f-1     :     0.001768
      f+2     :     0.017680
      f-2     :     0.000000
      f+3     :     0.016271
      f-3     :     0.026520
  1 O s       :     3.436567  s :     3.436567
      pz      :     1.308975  p :     4.240049
      px      :     1.622099
      py      :     1.308975
      dz2     :     0.009137  d :     0.057699
      dxz     :     0.010575
      dyz     :     0.000000
      dx2y2   :     0.027412
      dxy     :     0.010575
      f0      :     0.000423  f :     0.005816
      f+1     :     0.001336
      f-1     :     0.000070
      f+2     :     0.000705
      f-2     :     0.000000
      f+3     :     0.002226
      f-3     :     0.001057


                      *****************************
                      * MAYER POPULATION ANALYSIS *
                      *****************************

  NA   - Mulliken gross atomic population
  ZA   - Total nuclear charge
  QA   - Mulliken gross atomic charge
  VA   - Mayer's total valence
  BVA  - Mayer's bonded valence
  FA   - Mayer's free valence

  ATOM       NA         ZA         QA         VA         BVA        FA
  0 C      6.0377     6.0000    -0.0377     2.4498     2.4498     0.0000
  1 O      7.9623     8.0000     0.0377     2.4498     2.4498    -0.0000

  Mayer bond orders larger than 0.100000
B(  0-C ,  1-O ) :   2.4498 

-------
TIMINGS
-------

Total SCF time: 0 days 0 hours 0 min 0 sec 

Total time                  ....       0.332 sec
Sum of individual times     ....       0.298 sec  ( 89.7%)

Fock matrix formation       ....       0.228 sec  ( 68.7%)
  Split-RI-J                ....       0.040 sec  ( 17.6% of F)
  XC integration            ....       0.186 sec  ( 81.4% of F)
    Basis function eval.    ....       0.051 sec  ( 27.4% of XC)
    Density eval.           ....       0.053 sec  ( 28.6% of XC)
    XC-Functional eval.     ....       0.020 sec  ( 10.7% of XC)
    XC-Potential eval.      ....       0.049 sec  ( 26.6% of XC)
Diagonalization             ....       0.004 sec  (  1.2%)
Density matrix formation    ....       0.000 sec  (  0.1%)
Population analysis         ....       0.001 sec  (  0.3%)
Initial guess               ....       0.006 sec  (  1.8%)
Orbital Transformation      ....       0.000 sec  (  0.0%)
Orbital Orthonormalization  ....       0.000 sec  (  0.0%)
DIIS solution               ....       0.003 sec  (  0.9%)
SOSCF solution              ....       0.003 sec  (  0.9%)
Grid generation             ....       0.052 sec  ( 15.8%)

Maximum memory used throughout the entire SCF-calculation: 7.0 MB


-------------------------------------------------------------------------------
                          DFT DISPERSION CORRECTION                            
                                                                               
                              DFTD3 V3.1  Rev 1                                
                          USING Becke-Johnson damping                          
-------------------------------------------------------------------------------
The PBE functional is recognized
Active option DFTDOPT                   ...         4   

molecular C6(AA) [au] = 100.821931 


            DFT-D V3
 parameters
 s6 scaling factor         :     1.0000 
 a1 scaling factor         :     0.4289 
 s8 scaling factor         :     0.7875 
 a2 scaling factor         :     4.4407 
 ad hoc parameters k1-k3   :    16.0000     1.3333    -4.0000 

 Edisp/kcal,au: -0.257829522264  -0.000410877454 
 E6   /kcal   :  -0.178539416 
 E8   /kcal   :  -0.079290106 
 % E8         :  30.752919870 

-------------------------   ----------------
Dispersion correction           -0.000410877
-------------------------   ----------------


-------------------------   --------------------
FINAL SINGLE POINT ENERGY      -113.234775530629
-------------------------   --------------------



           ************************************************************
           *        Program running with 2 parallel MPI-processes     *
           *              working on a common directory               *
           ************************************************************
------------------------------------------------------------------------------
                         ORCA SCF GRADIENT CALCULATION
------------------------------------------------------------------------------

Gradient of the Kohn-Sham DFT energy:
Kohn-Sham wavefunction type      ... RKS
Hartree-Fock exchange scaling    ...    0.000
Number of operators              ...    1
Number of atoms                  ...    2
Basis set dimensions             ...   62
Integral neglect threshold       ... 2.5e-11
Integral primitive cutoff        ... 2.5e-12
SHARK Integral package           ... ON

Nuc. rep. gradient       (SHARK) ... done (  0.0 sec)
HCore & Overlap gradient (SHARK) ... done (  0.0 sec)
RI-J gradient            (SHARK) ... done (  0.0 sec)
Exchange-correlation gradient    ... done
Dispersion correction            ... done

------------------
CARTESIAN GRADIENT
------------------

   1   C   :   -0.000000691    0.000000000    0.000000000
   2   O   :    0.000000691   -0.000000000   -0.000000000

Difference to translation invariance:
           :    0.0000000000   -0.0000000000   -0.0000000000

Difference to rotation invariance:
           :    0.0000000000    0.0000000002   -0.0000000002

Norm of the cartesian gradient     ...    0.0000009775
RMS gradient                       ...    0.0000003991
MAX gradient                       ...    0.0000006912

-------
TIMINGS
-------

Total SCF gradient time            ...        0.174 sec

One electron gradient       ....       0.003 sec  (  1.5%)
RI-J Coulomb gradient       ....       0.043 sec  ( 24.4%)
XC gradient                 ....       0.084 sec  ( 48.1%)

Maximum memory used throughout the entire SCFGRAD-calculation: 25.7 MB
------------------------------------------------------------------------------
                         ORCA GEOMETRY RELAXATION STEP
------------------------------------------------------------------------------

Reading the OPT-File                    .... done
Getting information on internals        .... done
Copying old internal coords+grads       .... done
Making the new internal coordinates     .... (new redundants).... done
Validating the new internal coordinates .... (new redundants).... done
Calculating the B-matrix                .... done
Calculating the G,G- and P matrices     .... done
Transforming gradient to internals      .... done
Projecting the internal gradient        .... done
Number of atoms                         ....   2
Number of internal coordinates          ....   1
Current Energy                          ....  -113.234775531 Eh
Current gradient norm                   ....     0.000000978 Eh/bohr
Maximum allowed component of the step   ....  0.300
Current trust radius                    ....  0.300
Evaluating the initial hessian          ....  (Almloef) done
Projecting the Hessian                  .... done
Forming the augmented Hessian           .... done
Diagonalizing the augmented Hessian     .... done
Last element of RFO vector              ....  1.000000000
Lowest eigenvalues of augmented Hessian:
 -0.000000000
Length of the computed step             ....  0.000000487
The final length of the internal step   ....  0.000000487
Converting the step to cartesian space:
 Initial RMS(Int)=    0.0000004867
Transforming coordinates:
 Iter   0:  RMS(Cart)=    0.0000001405 RMS(Int)=    0.0000004867
 Iter   1:  RMS(Cart)=    0.0000000000 RMS(Int)=    0.0000000000
done
Storing new coordinates                 .... done

                                .--------------------.
          ----------------------|Geometry convergence|-------------------------
          Item                value                   Tolerance       Converged
          ---------------------------------------------------------------------
          RMS gradient        0.0000006912            0.0001000000      YES
          MAX gradient        0.0000006912            0.0003000000      YES
          RMS step            0.0000004867            0.0020000000      YES
          MAX step            0.0000004867            0.0040000000      YES
          ........................................................
          Max(Bonds)      0.0000      Max(Angles)    0.00
          Max(Dihed)        0.00      Max(Improp)    0.00
          ---------------------------------------------------------------------

                    ***********************HURRAY********************
                    ***        THE OPTIMIZATION HAS CONVERGED     ***
                    *************************************************


    ---------------------------------------------------------------------------
                         Redundant Internal Coordinates

                          --- Optimized Parameters ---  
                            (Angstroem and degrees)

        Definition                    OldVal   dE/dq     Step     FinalVal
    ----------------------------------------------------------------------------
     1. B(O   1,C   0)                1.1365  0.000001 -0.0000    1.1365   
    ----------------------------------------------------------------------------
                 *******************************************************
                 *** FINAL ENERGY EVALUATION AT THE STATIONARY POINT ***
                 ***               (AFTER    1 CYCLES)               ***
                 *******************************************************
---------------------------------
CARTESIAN COORDINATES (ANGSTROEM)
---------------------------------
  C      0.431753    0.000000    0.000000
  O      1.568247    0.000000    0.000000

----------------------------
CARTESIAN COORDINATES (A.U.)
----------------------------
  NO LB      ZA    FRAG     MASS         X           Y           Z
   0 C     6.0000    0    12.011    0.815895    0.000000    0.000000
   1 O     8.0000    0    15.999    2.963558    0.000000    0.000000

--------------------------------
INTERNAL COORDINATES (ANGSTROEM)
--------------------------------
 C      0   0   0     0.000000000000     0.00000000     0.00000000
 O      1   0   0     1.136494238730     0.00000000     0.00000000

---------------------------
INTERNAL COORDINATES (A.U.)
---------------------------
 C      0   0   0     0.000000000000     0.00000000     0.00000000
 O      1   0   0     2.147662863978     0.00000000     0.00000000

---------------------
BASIS SET INFORMATION
---------------------
There are 2 groups of distinct atoms

 Group   1 Type C   : 11s6p2d1f contracted to 5s3p2d1f pattern {62111/411/11/1}
 Group   2 Type O   : 11s6p2d1f contracted to 5s3p2d1f pattern {62111/411/11/1}

Atom   0C    basis set group =>   1
Atom   1O    basis set group =>   2
---------------------------------
AUXILIARY/J BASIS SET INFORMATION
---------------------------------
There are 2 groups of distinct atoms

 Group   1 Type C   : 12s5p4d2f1g contracted to 6s4p3d1f1g pattern {711111/2111/211/2/1}
 Group   2 Type O   : 12s5p4d2f1g contracted to 6s4p3d1f1g pattern {711111/2111/211/2/1}

Atom   0C    basis set group =>   1
Atom   1O    basis set group =>   2


           ************************************************************
           *        Program running with 2 parallel MPI-processes     *
           *              working on a common directory               *
           ************************************************************
------------------------------------------------------------------------------
                           ORCA GTO INTEGRAL CALCULATION
                           -- RI-GTO INTEGRALS CHOSEN --
------------------------------------------------------------------------------
------------------------------------------------------------------------------
                   ___                                                        
                  /   \      - P O W E R E D   B Y -                         
                 /     \                                                     
                 |  |  |   _    _      __       _____    __    __             
                 |  |  |  | |  | |    /  \     |  _  \  |  |  /  |          
                  \  \/   | |  | |   /    \    | | | |  |  | /  /          
                 / \  \   | |__| |  /  /\  \   | |_| |  |  |/  /          
                |  |  |   |  __  | /  /__\  \  |    /   |      \           
                |  |  |   | |  | | |   __   |  |    \   |  |\   \          
                \     /   | |  | | |  |  |  |  | |\  \  |  | \   \       
                 \___/    |_|  |_| |__|  |__|  |_| \__\ |__|  \__/        
                                                                              
                      - O R C A' S   B I G   F R I E N D -                    
                                      &                                       
                       - I N T E G R A L  F E E D E R -                       
                                                                              
 v1 FN, 2020, v2 2021                                                         
------------------------------------------------------------------------------


Reading SHARK input file molecule.SHARKINP.tmp ... ok
----------------------
SHARK INTEGRAL PACKAGE
----------------------

Number of atoms                             ...      2
Number of basis functions                   ...     62
Number of shells                            ...     22
Maximum angular momentum                    ...      3
Integral batch strategy                     ... SHARK/LIBINT Hybrid
RI-J (if used) integral strategy            ... SPLIT-RIJ (Revised 2003 algorithm where possible)
Printlevel                                  ...      1
Contraction scheme used                     ... SEGMENTED contraction
Coulomb Range Separation                    ... NOT USED
Exchange Range Separation                   ... NOT USED
Finite Nucleus Model                        ... NOT USED
Auxiliary Coulomb fitting basis             ... AVAILABLE
   # of basis functions in Aux-J            ...     98
   # of shells in Aux-J                     ...     30
   Maximum angular momentum in Aux-J        ...      4
Auxiliary J/K fitting basis                 ... NOT available
Auxiliary Correlation fitting basis         ... NOT available
Auxiliary 'external' fitting basis          ... NOT available
Integral threshold                          ...     2.500000e-11
Primitive cut-off                           ...     2.500000e-12
Primitive pair pre-selection threshold      ...     2.500000e-12

Calculating pre-screening integrals         ... done (  0.0 sec) Dimension = 22
Organizing shell pair data                  ... done (  0.0 sec)
Shell pair information
Total number of shell pairs                 ...       253
Shell pairs after pre-screening             ...       252
Total number of primitive shell pairs       ...       864
Primitive shell pairs kept                  ...       795
          la=0 lb=0:     54 shell pairs
          la=1 lb=0:     60 shell pairs
          la=1 lb=1:     21 shell pairs
          la=2 lb=0:     40 shell pairs
          la=2 lb=1:     24 shell pairs
          la=2 lb=2:     10 shell pairs
          la=3 lb=0:     20 shell pairs
          la=3 lb=1:     12 shell pairs
          la=3 lb=2:      8 shell pairs
          la=3 lb=3:      3 shell pairs

Calculating one electron integrals          ... done (  0.0 sec)
Calculating RI/J V-Matrix + Cholesky decomp.... done (  0.0 sec)
Calculating Nuclear repulsion               ... done (  0.0 sec) ENN=     22.349876605439 Eh

SHARK setup successfully completed in   0.0 seconds

Maximum memory used throughout the entire GTOINT-calculation: 13.9 MB


           ************************************************************
           *        Program running with 2 parallel MPI-processes     *
           *              working on a common directory               *
           ************************************************************
-------------------------------------------------------------------------------
                                 ORCA SCF
-------------------------------------------------------------------------------

------------
SCF SETTINGS
------------
Hamiltonian:
 Density Functional     Method          .... DFT(GTOs)
 Exchange Functional    Exchange        .... PBE
   PBE kappa parameter   XKappa         ....  0.804000
   PBE mue parameter    XMuePBE         ....  0.219520
 Correlation Functional Correlation     .... PBE
   PBE beta parameter  CBetaPBE         ....  0.066725
 LDA part of GGA corr.  LDAOpt          .... PW91-LDA
 Gradients option       PostSCFGGA      .... off
   Density functional embedding theory  .... OFF
   NL short-range parameter             ....  6.400000
 RI-approximation to the Coulomb term is turned on
   Number of AuxJ basis functions       .... 98


General Settings:
 Integral files         IntName         .... molecule
 Hartree-Fock type      HFTyp           .... RHF
 Total Charge           Charge          ....    0
 Multiplicity           Mult            ....    1
 Number of Electrons    NEL             ....   14
 Basis Dimension        Dim             ....   62
 Nuclear Repulsion      ENuc            ....     22.3498766054 Eh

Convergence Acceleration:
 DIIS                   CNVDIIS         .... on
   Start iteration      DIISMaxIt       ....    12
   Startup error        DIISStart       ....  0.200000
   # of expansion vecs  DIISMaxEq       ....     5
   Bias factor          DIISBfac        ....   1.050
   Max. coefficient     DIISMaxC        ....  10.000
 Trust-Rad. Augm. Hess. CNVTRAH         .... auto
   Auto Start mean grad. ratio tolernc. ....  1.125000
   Auto Start start iteration           ....     1
   Auto Start num. interpolation iter.  ....    10
   Max. Number of Micro iterations      ....    16
   Max. Number of Macro iterations      .... Maxiter - #DIIS iter
   Number of Davidson start vectors     ....     2
   Converg. threshold I  (grad. norm)   ....   1.000e-05
   Converg. threshold II (energy diff.) ....   1.000e-08
   Grad. Scal. Fac. for Micro threshold ....   0.100
   Minimum threshold for Micro iter.    ....   0.010
   NR start threshold (gradient norm)   ....   0.001
   Initial trust radius                 ....   0.400
   Minimum AH scaling param. (alpha)    ....   1.000
   Maximum AH scaling param. (alpha)    .... 1000.000
   Orbital update algorithm             .... Taylor
   White noise on init. David. guess    .... on
   Maximum white noise                  ....   0.010
   Quad. conv. algorithm                .... NR
 SOSCF                  CNVSOSCF        .... on
   Start iteration      SOSCFMaxIt      ....   150
   Startup grad/error   SOSCFStart      ....  0.003300
 Level Shifting         CNVShift        .... on
   Level shift para.    LevelShift      ....    0.2500
   Turn off err/grad.   ShiftErr        ....    0.0010
 Zerner damping         CNVZerner       .... off
 Static damping         CNVDamp         .... on
   Fraction old density DampFac         ....    0.7000
   Max. Damping (<1)    DampMax         ....    0.9800
   Min. Damping (>=0)   DampMin         ....    0.0000
   Turn off err/grad.   DampErr         ....    0.1000
 Fernandez-Rico         CNVRico         .... off

SCF Procedure:
 Maximum # iterations   MaxIter         ....   125
 SCF integral mode      SCFMode         .... Direct
   Integral package                     .... SHARK and LIBINT hybrid scheme
 Reset frequency        DirectResetFreq ....    20
 Integral Threshold     Thresh          ....  2.500e-11 Eh
 Primitive CutOff       TCut            ....  2.500e-12 Eh

Convergence Tolerance:
 Convergence Check Mode ConvCheckMode   .... Total+1el-Energy
 Convergence forced     ConvForced      .... 0
 Energy Change          TolE            ....  1.000e-08 Eh
 1-El. energy change                    ....  1.000e-05 Eh
 Orbital Gradient       TolG            ....  1.000e-05
 Orbital Rotation angle TolX            ....  1.000e-05
 DIIS Error             TolErr          ....  5.000e-07


Diagonalization of the overlap matrix:
Smallest eigenvalue                        ... 1.227e-03
Time for diagonalization                   ...    0.001 sec
Threshold for overlap eigenvalues          ... 1.000e-08
Number of eigenvalues below threshold      ... 0
Time for construction of square roots      ...    0.000 sec
Total time needed                          ...    0.001 sec

---------------------
INITIAL GUESS: MOREAD
---------------------
Guess MOs are being read from file: molecule.gbw
Input Geometry matches current geometry (good)
Input basis set matches current basis set (good)
MOs were renormalized
MOs were reorthogonalized (Cholesky)
                      ------------------
                      INITIAL GUESS DONE (   0.0 sec)
                      ------------------
-------------------
DFT GRID GENERATION
-------------------

General Integration Accuracy     IntAcc      ... 4.388
Radial Grid Type                 RadialGrid  ... OptM3 with GC (2021)
Angular Grid (max. ang.)         AngularGrid ... 4 (Lebedev-302)
Angular grid pruning method      GridPruning ... 4 (adaptive)
Weight generation scheme         WeightScheme... Becke
Basis function cutoff            BFCut       ... 1.0000e-11
Integration weight cutoff        WCut        ... 1.0000e-14
Angular grids for H and He will be reduced by one unit
Partially contracted basis set               ... off
Rotationally invariant grid construction     ... off

Total number of grid points                  ...    12255
Total number of batches                      ...      192
Average number of points per batch           ...       63
Average number of grid points per atom       ...     6128
Time for grid setup =    0.045 sec

--------------
SCF ITERATIONS
--------------
ITER       Energy         Delta-E        Max-DP      RMS-DP      [F,P]     Damp
               ***  Starting incremental Fock matrix formation  ***
                      *** Initiating the SOSCF procedure ***
                      *** Re-Reading the Fockian *** 
                      *** Removing any level shift *** 
ITER      Energy       Delta-E        Grad      Rot      Max-DP    RMS-DP
  0   -113.23436465 -113.2343646534  0.000002  0.000002  0.000005  0.000000
               *** Restarting incremental Fock matrix formation ***
                  ***Gradient check signals convergence***
              ***Rediagonalizing the Fockian in SOSCF/NRSCF***

               *****************************************************
               *                     SUCCESS                       *
               *           SCF CONVERGED AFTER   1 CYCLES          *
               *****************************************************


----------------
TOTAL SCF ENERGY
----------------

Total Energy       :         -113.23436465 Eh           -3081.26371 eV

Components:
Nuclear Repulsion  :           22.34987661 Eh             608.17106 eV
Electronic Energy  :         -135.58424126 Eh           -3689.43477 eV
One Electron Energy:         -198.04773391 Eh           -5389.15282 eV
Two Electron Energy:           62.46349265 Eh            1699.71805 eV

Virial components:
Potential Energy   :         -226.08463283 Eh           -6152.07562 eV
Kinetic Energy     :          112.85026818 Eh            3070.81191 eV
Virial Ratio       :            2.00340359


DFT components:
N(Alpha)           :        7.000002562889 electrons
N(Beta)            :        7.000002562889 electrons
N(Total)           :       14.000005125779 electrons
E(X)               :      -13.310144779035 Eh       
E(C)               :       -0.448385441153 Eh       
E(XC)              :      -13.758530220188 Eh       
DFET-embed. en.    :        0.000000000000 Eh       

---------------
SCF CONVERGENCE
---------------

  Last Energy change         ...   -1.3486e-11  Tolerance :   1.0000e-08
  Last MAX-Density change    ...    3.6147e-06  Tolerance :   1.0000e-07
  Last RMS-Density change    ...    1.7378e-07  Tolerance :   5.0000e-09
  Last Orbital Gradient      ...    1.6451e-06  Tolerance :   1.0000e-05
  Last Orbital Rotation      ...    4.5954e-06  Tolerance :   1.0000e-05

             **** THE GBW FILE WAS UPDATED (molecule.gbw) ****
             **** DENSITY molecule.scfp WAS UPDATED ****
             **** ENERGY FILE WAS UPDATED (molecule.en.tmp) ****
             **** THE GBW FILE WAS UPDATED (molecule.gbw) ****
             **** DENSITY molecule.scfp WAS UPDATED ****
----------------
ORBITAL ENERGIES
----------------

  NO   OCC          E(Eh)            E(eV) 
   0   2.0000     -18.855992      -513.0976 
   1   2.0000      -9.997862      -272.0557 
   2   2.0000      -1.071738       -29.1635 
   3   2.0000      -0.517908       -14.0930 
   4   2.0000      -0.432106       -11.7582 
   5   2.0000      -0.432106       -11.7582 
   6   2.0000      -0.331530        -9.0214 
   7   0.0000      -0.074130        -2.0172 
   8   0.0000      -0.074130        -2.0172 
   9   0.0000       0.096466         2.6250 
  10   0.0000       0.165345         4.4993 
  11   0.0000       0.191591         5.2135 
  12   0.0000       0.191591         5.2135 
  13   0.0000       0.337200         9.1757 
  14   0.0000       0.442452        12.0397 
  15   0.0000       0.442452        12.0397 
  16   0.0000       0.513488        13.9727 
  17   0.0000       0.595249        16.1976 
  18   0.0000       0.595249        16.1976 
  19   0.0000       0.661561        18.0020 
  20   0.0000       0.802856        21.8468 
  21   0.0000       0.802856        21.8468 
  22   0.0000       1.105758        30.0892 
  23   0.0000       1.223931        33.3049 
  24   0.0000       1.306067        35.5399 
  25   0.0000       1.306067        35.5399 
  26   0.0000       1.352242        36.7964 
  27   0.0000       1.429902        38.9096 
  28   0.0000       1.429902        38.9096 
  29   0.0000       1.811667        49.2980 
  30   0.0000       1.811667        49.2980 
  31   0.0000       2.083450        56.6936 
  32   0.0000       2.472452        67.2789 
  33   0.0000       2.472452        67.2789 
  34   0.0000       2.558435        69.6186 
  35   0.0000       2.558435        69.6186 
  36   0.0000       2.721576        74.0578 
  37   0.0000       2.721576        74.0579 
  38   0.0000       2.746728        74.7423 
  39   0.0000       2.850833        77.5751 
  40   0.0000       2.850833        77.5751 
  41   0.0000       2.899740        78.9060 
  42   0.0000       2.899740        78.9060 
  43   0.0000       2.977913        81.0331 
  44   0.0000       3.532844        96.1336 
  45   0.0000       3.532844        96.1336 
  46   0.0000       3.734712       101.6267 
  47   0.0000       4.044320       110.0515 
  48   0.0000       4.953899       134.8024 
  49   0.0000       4.953899       134.8024 
  50   0.0000       5.342192       145.3684 
  51   0.0000       5.342194       145.3685 
  52   0.0000       6.023168       163.8987 
  53   0.0000       6.023168       163.8987 
  54   0.0000       6.088625       165.6799 
  55   0.0000       6.088641       165.6804 
  56   0.0000       6.302133       171.4898 
  57   0.0000       6.536757       177.8742 
  58   0.0000       6.536757       177.8742 
  59   0.0000       6.882625       187.2857 
  60   0.0000      21.573913       587.0560 
  61   0.0000      43.055388      1171.5967 

                    ********************************
                    * MULLIKEN POPULATION ANALYSIS *
                    ********************************

-----------------------
MULLIKEN ATOMIC CHARGES
-----------------------
   0 C :   -0.037652
   1 O :    0.037652
Sum of atomic charges:   -0.0000000

--------------------------------
MULLIKEN REDUCED ORBITAL CHARGES
--------------------------------
  0 C s       :     3.898602  s :     3.898602
      pz      :     0.534313  p :     2.023062
      px      :     0.954437
      py      :     0.534313
      dz2     :     0.007941  d :     0.103518
      dxz     :     0.035877
      dyz     :     0.000000
      dx2y2   :     0.023824
      dxy     :     0.035877
      f0      :     0.001709  f :     0.012470
      f+1     :     0.001257
      f-1     :     0.000285
      f+2     :     0.002849
      f-2     :     0.000000
      f+3     :     0.002096
      f-3     :     0.004273
  1 O s       :     3.758288  s :     3.758288
      pz      :     1.413374  p :     4.173110
      px      :     1.346363
      py      :     1.413374
      dz2     :     0.001732  d :     0.029281
      dxz     :     0.011177
      dyz     :     0.000000
      dx2y2   :     0.005195
      dxy     :     0.011177
      f0      :     0.000263  f :     0.001669
      f+1     :     0.000100
      f-1     :     0.000044
      f+2     :     0.000439
      f-2     :     0.000000
      f+3     :     0.000166
      f-3     :     0.000658


                     *******************************
                     * LOEWDIN POPULATION ANALYSIS *
                     *******************************

----------------------
LOEWDIN ATOMIC CHARGES
----------------------
   0 C :   -0.259865
   1 O :    0.259865

-------------------------------
LOEWDIN REDUCED ORBITAL CHARGES
-------------------------------
  0 C s       :     3.503963  s :     3.503963
      pz      :     0.567543  p :     2.357381
      px      :     1.222294
      py      :     0.567543
      dz2     :     0.037233  d :     0.315910
      dxz     :     0.083490
      dyz     :     0.000000
      dx2y2   :     0.111698
      dxy     :     0.083490
      f0      :     0.010608  f :     0.082611
      f+1     :     0.009763
      f-1     :     0.001768
      f+2     :     0.017680
      f-2     :     0.000000
      f+3     :     0.016271
      f-3     :     0.026520
  1 O s       :     3.436567  s :     3.436567
      pz      :     1.308977  p :     4.240054
      px      :     1.622100
      py      :     1.308977
      dz2     :     0.009137  d :     0.057698
      dxz     :     0.010574
      dyz     :     0.000000
      dx2y2   :     0.027412
      dxy     :     0.010574
      f0      :     0.000423  f :     0.005816
      f+1     :     0.001336
      f-1     :     0.000070
      f+2     :     0.000705
      f-2     :     0.000000
      f+3     :     0.002226
      f-3     :     0.001057


                      *****************************
                      * MAYER POPULATION ANALYSIS *
                      *****************************

  NA   - Mulliken gross atomic population
  ZA   - Total nuclear charge
  QA   - Mulliken gross atomic charge
  VA   - Mayer's total valence
  BVA  - Mayer's bonded valence
  FA   - Mayer's free valence

  ATOM       NA         ZA         QA         VA         BVA        FA
  0 C      6.0377     6.0000    -0.0377     2.4498     2.4498     0.0000
  1 O      7.9623     8.0000     0.0377     2.4498     2.4498    -0.0000

  Mayer bond orders larger than 0.100000
B(  0-C ,  1-O ) :   2.4498 

-------
TIMINGS
-------

Total SCF time: 0 days 0 hours 0 min 0 sec 

Total time                  ....       0.118 sec
Sum of individual times     ....       0.086 sec  ( 72.9%)

Fock matrix formation       ....       0.037 sec  ( 31.5%)
  Split-RI-J                ....       0.007 sec  ( 19.0% of F)
  XC integration            ....       0.031 sec  ( 83.5% of F)
    Basis function eval.    ....       0.008 sec  ( 26.5% of XC)
    Density eval.           ....       0.009 sec  ( 28.5% of XC)
    XC-Functional eval.     ....       0.003 sec  ( 10.6% of XC)
    XC-Potential eval.      ....       0.008 sec  ( 25.2% of XC)
Diagonalization             ....       0.001 sec  (  0.6%)
Density matrix formation    ....       0.000 sec  (  0.0%)
Population analysis         ....       0.001 sec  (  0.9%)
Initial guess               ....       0.001 sec  (  0.7%)
Orbital Transformation      ....       0.000 sec  (  0.0%)
Orbital Orthonormalization  ....       0.000 sec  (  0.2%)
DIIS solution               ....       0.000 sec  (  0.3%)
SOSCF solution              ....       0.001 sec  (  0.5%)
Grid generation             ....       0.045 sec  ( 38.5%)

Maximum memory used throughout the entire SCF-calculation: 7.0 MB


-------------------------------------------------------------------------------
                          DFT DISPERSION CORRECTION                            
                                                                               
                              DFTD3 V3.1  Rev 1                                
                          USING Becke-Johnson damping                          
-------------------------------------------------------------------------------
The PBE functional is recognized
Active option DFTDOPT                   ...         4   

molecular C6(AA) [au] = 100.821931 


            DFT-D V3
 parameters
 s6 scaling factor         :     1.0000 
 a1 scaling factor         :     0.4289 
 s8 scaling factor         :     0.7875 
 a2 scaling factor         :     4.4407 
 ad hoc parameters k1-k3   :    16.0000     1.3333    -4.0000 

 Edisp/kcal,au: -0.257829522580  -0.000410877454 
 E6   /kcal   :  -0.178539416 
 E8   /kcal   :  -0.079290106 
 % E8         :  30.752919839 

-------------------------   ----------------
Dispersion correction           -0.000410877
-------------------------   ----------------


-------------------------   --------------------
FINAL SINGLE POINT ENERGY      -113.234775530875
-------------------------   --------------------

                                *** OPTIMIZATION RUN DONE ***

                            ***************************************
                            *     ORCA property calculations      *
                            ***************************************

                                    ---------------------
                                    Active property flags
                                    ---------------------
   (+) Dipole Moment


------------------------------------------------------------------------------
                       ORCA ELECTRIC PROPERTIES CALCULATION
------------------------------------------------------------------------------

Dipole Moment Calculation                       ... on
Quadrupole Moment Calculation                   ... off
Polarizability Calculation                      ... off
GBWName                                         ... molecule.gbw
Electron density                                ... molecule.scfp
The origin for moment calculation is the CENTER OF MASS  = ( 2.042616,  0.000000  0.000000)

-------------
DIPOLE MOMENT
-------------
                                X             Y             Z
Electronic contribution:      0.07539      -0.00000       0.00000
Nuclear contribution   :      0.00721       0.00000       0.00000
                        -----------------------------------------
Total Dipole Moment    :      0.08260      -0.00000       0.00000
                        -----------------------------------------
Magnitude (a.u.)       :      0.08260
Magnitude (Debye)      :      0.20994



--------------------
Rotational spectrum 
--------------------
 
Rotational constants in cm-1:     0.000000     1.902407     1.902407 
Rotational constants in MHz :     0.000000 57032.739176 57032.739176 

 Dipole components along the rotational axes: 
x,y,z [a.u.] :     0.082597    -0.000000     0.000000 
x,y,z [Debye]:     0.209944    -0.000000     0.000000 

 

Timings for individual modules:

Sum of individual times         ...        4.898 sec (=   0.082 min)
GTO integral calculation        ...        1.660 sec (=   0.028 min)  33.9 %
SCF iterations                  ...        2.188 sec (=   0.036 min)  44.7 %
SCF Gradient evaluation         ...        1.028 sec (=   0.017 min)  21.0 %
Geometry relaxation             ...        0.021 sec (=   0.000 min)   0.4 %
                             ****ORCA TERMINATED NORMALLY****
TOTAL RUN TIME: 0 days 0 hours 0 minutes 5 seconds 890 msec
