Graphite surface slap                   
   1.0000000000000000     
     2.441046    0.000000    0.000000
    -1.220523    2.114008    0.000000
     0.000000    0.000000   10.000000
   C 
     2
Direct
  0.000000  0.000000  0.000000
  0.333333  0.666667  0.000000

   24   24  100
  95.515      97.009      99.959      101.04      97.705      89.930      79.762      69.619      60.898      53.920    
  48.893      45.929      44.957      45.928      48.892      53.921      60.902      69.626      79.771      89.938    
  97.711      101.04      99.957      97.006      97.006      97.010      98.001      97.836      94.081      86.013    
  75.092      63.774      53.920      46.113      40.293      36.528      34.713      34.713      36.529      40.294    
  46.117      53.927      63.781      75.097      86.012      94.075      97.826      97.992      99.957      100.43    
  99.965      97.839      92.617      83.663      71.993      59.748      48.893      40.293      33.841      29.451    
  26.964      26.166      26.964      29.451      33.842      40.296      48.896      59.748      71.988      83.652    
  92.602      97.826      101.04      104.39      104.39      101.04      94.084      83.662      70.898      57.705    
  45.929      36.528      29.451      24.469      21.391      19.944      19.943      21.390      24.468      29.450    
  36.527      45.927      57.700      70.889      83.652      94.075      97.711      105.39      108.06      105.39    
  97.707      86.011      71.990      57.703      44.957      34.713      26.964      21.391      17.755      15.742    
  15.102      15.742      17.754      21.389      26.961      34.709      44.953      57.700      71.988      86.012    
  89.938      101.77      108.34      108.34      101.76      89.926      75.087      59.744      45.928      34.713    
  26.166      19.944      15.742      13.199      12.012      12.012      13.201      15.743      19.942      26.162    
  34.709      45.927      59.748      75.097      79.771      94.397      104.76      108.52      104.76      94.385    
  79.757      63.771      48.892      36.529      26.964      19.943      15.102      12.012      10.310      9.7693    
  10.312      12.015      15.105      19.942      26.961      36.527      48.896      63.781      69.626      85.486    
  98.654      106.18      106.18      98.648      85.478      69.618      53.921      40.294      29.451      21.390    
  15.742      12.012      9.7693      8.7197      8.7207      9.7718      12.015      15.743      21.389      29.450    
  40.296      53.927      60.902      76.935      91.851      102.58      106.51      102.58      91.851      76.935    
  60.902      46.117      33.842      24.468      17.754      13.201      10.312      8.7207      8.2129      8.7207    
  10.312      13.201      17.754      24.468      33.842      46.117      53.921      69.618      85.478      98.648    
  106.18      106.18      98.654      85.486      69.626      53.927      40.296      29.450      21.389      15.743    
  12.015      9.7718      8.7207      8.7197      9.7693      12.012      15.742      21.390      29.451      40.294    
  48.892      63.771      79.757      94.385      104.76      108.52      104.76      94.397      79.771      63.781    
  48.896      36.527      26.961      19.942      15.105      12.015      10.312      9.7693      10.310      12.012    
  15.102      19.943      26.964      36.529      45.928      59.744      75.087      89.926      101.76      108.34    
  108.34      101.77      89.938      75.097      59.748      45.927      34.709      26.162      19.942      15.743    
  13.201      12.012      12.012      13.199      15.742      19.944      26.166      34.713      44.957      57.703    
  71.990      86.011      97.707      105.39      108.06      105.39      97.711      86.012      71.988      57.700    
  44.953      34.709      26.961      21.389      17.754      15.742      15.102      15.742      17.755      21.391    
  26.964      34.713      45.929      57.705      70.898      83.662      94.084      101.04      104.39      104.39    
  101.04      94.075      83.652      70.889      57.700      45.927      36.527      29.450      24.468      21.390    
  19.943      19.944      21.391      24.469      29.451      36.528      48.893      59.748      71.993      83.663    
  92.617      97.839      99.965      100.43      99.957      97.826      92.602      83.652      71.988      59.748    
  48.896      40.296      33.842      29.451      26.964      26.166      26.964      29.451      33.841      40.293    
  53.920      63.774      75.092      86.013      94.081      97.836      98.001      97.010      97.006      97.992    
  97.826      94.075      86.012      75.097      63.781      53.927      46.117      40.294      36.529      34.713    
  34.713      36.528      40.293      46.113      60.898      69.619      79.762      89.930      97.705      101.04    
  99.959      97.009      95.515      97.006      99.957      101.04      97.711      89.938      79.771      69.626    
  60.902      53.921      48.892      45.928      44.957      45.929      48.893      53.920      69.619      76.934    
  85.483      94.390      101.76      105.38      104.39      100.42      97.009      97.010      100.43      104.39    
  105.39      101.77      94.397      85.486      76.935      69.618      63.771      59.744      57.703      57.705    
  59.748      63.774      79.762      85.483      91.854      98.655      104.76      108.33      108.05      104.39    
  99.959      98.001      99.965      104.39      108.06      108.34      104.76      98.654      91.851      85.478    
  79.757      75.087      71.990      70.898      71.993      75.092      89.930      94.390      98.655      102.59    
  106.19      108.52      108.33      105.38      101.04      97.836      97.839      101.04      105.39      108.34    
  108.52      106.18      102.58      98.648      94.385      89.926      86.011      83.662      83.663      86.013    
  97.705      101.76      104.76      106.19      106.51      106.19      104.76      101.76      97.705      94.081    
  92.617      94.084      97.707      101.76      104.76      106.18      106.51      106.18      104.76      101.76    
  97.707      94.084      92.617      94.081      101.04      105.38      108.33      108.52      106.19      102.59    
  98.655      94.390      89.930      86.013      83.663      83.662      86.011      89.926      94.385      98.648    
  102.58      106.18      108.52      108.34      105.39      101.04      97.839      97.836      99.959      104.39    
  108.05      108.33      104.76      98.655      91.854      85.483      79.762      75.092      71.993      70.898    
  71.990      75.087      79.757      85.478      91.851      98.654      104.76      108.34      108.06      104.39    
  99.965      98.001      97.009      100.42      104.39      105.38      101.76      94.390      85.483      76.934    
  69.619      63.774      59.748      57.705      57.703      59.744      63.771      69.618      76.935      85.486    
  94.397      101.77      105.39      104.39      100.43      97.010      94.231      95.545      98.061      98.692    
  95.124      87.395      77.483      67.676      59.262      52.522      47.675      44.821      43.886      44.820    
  47.674      52.523      59.266      67.682      77.491      87.402      95.130      98.694      98.059      95.542    
  95.543      95.546      96.282      95.771      91.787      83.729      73.038      62.054      52.522      44.963    
  39.334      35.698      33.945      33.945      35.698      39.336      44.967      52.527      62.060      73.043    
  83.729      91.782      95.762      96.274      98.060      98.607      98.066      95.774      90.436      81.535    
  70.100      58.194      47.675      39.334      33.068      28.811      26.401      25.628      26.401      28.812    
  33.070      39.336      47.677      58.195      70.096      81.525      90.423      95.762      98.694      102.05    
  102.05      98.699      91.790      81.535      69.065      56.241      44.821      35.698      28.811      23.965    
  20.973      19.565      19.565      20.972      23.965      28.811      35.697      44.819      56.236      69.057    
  81.525      91.781      95.130      102.64      105.24      102.63      95.126      83.728      70.098      56.239    
  43.886      33.945      26.401      20.973      17.429      15.467      14.843      15.467      17.429      20.971    
  26.399      33.942      43.882      56.236      70.096      83.729      87.402      98.854      105.22      105.21    
  98.844      87.391      73.034      58.191      44.820      33.945      25.628      19.565      15.467      12.984    
  11.823      11.823      12.985      15.468      19.564      25.625      33.942      44.819      58.195      73.042    
  77.491      91.597      101.59      105.21      101.58      91.586      77.479      62.051      47.674      35.698    
  26.401      19.565      14.843      11.823      10.157      9.6277      10.160      11.826      14.845      19.564    
  26.399      35.697      47.678      62.060      67.682      82.967      95.642      102.88      102.88      95.637    
  82.960      67.674      52.523      39.336      28.812      20.972      15.467      11.823      9.6277      8.5989    
  8.5998      9.6300      11.826      15.468      20.971      28.810      39.337      52.528      59.266      74.728    
  89.084      99.403      103.17      99.404      89.085      74.728      59.266      44.967      33.070      23.965    
  17.429      12.985      10.160      8.5998      8.1016      8.5997      10.160      12.985      17.429      23.965    
  33.069      44.967      52.523      67.674      82.960      95.637      102.88      102.88      95.642      82.967    
  67.682      52.527      39.336      28.811      20.971      15.468      11.826      9.6300      8.5997      8.5987    
  9.6276      11.824      15.467      20.972      28.812      39.336      47.674      62.051      77.479      91.586    
  101.58      105.21      101.59      91.597      77.491      62.060      47.677      35.697      26.399      19.564    
  14.845      11.826      10.160      9.6276      10.157      11.822      14.843      19.565      26.401      35.699    
  44.820      58.191      73.034      87.391      98.845      105.22      105.22      98.853      87.402      73.043    
  58.195      44.819      33.942      25.625      19.564      15.468      12.985      11.824      11.822      12.983    
  15.467      19.565      25.628      33.945      43.886      56.239      70.098      83.727      95.126      102.63    
  105.24      102.64      95.130      83.729      70.096      56.236      43.882      33.942      26.399      20.971    
  17.429      15.467      14.843      15.467      17.429      20.973      26.401      33.945      44.821      56.241    
  69.066      81.534      91.789      98.698      102.05      102.05      98.694      91.782      81.525      69.057    
  56.236      44.819      35.697      28.810      23.965      20.972      19.565      19.565      20.973      23.966    
  28.811      35.698      47.675      58.194      70.101      81.535      90.436      95.774      98.066      98.607    
  98.059      95.762      90.423      81.525      70.096      58.195      47.678      39.337      33.069      28.812    
  26.401      25.628      26.401      28.811      33.068      39.334      52.522      62.054      73.038      83.729    
  91.787      95.771      96.282      95.546      95.542      96.274      95.762      91.781      83.729      73.042    
  62.060      52.528      44.967      39.336      35.699      33.945      33.945      35.698      39.334      44.963    
  59.262      67.676      77.483      87.394      95.124      98.692      98.062      95.545      94.231      95.543    
  98.060      98.694      95.130      87.402      77.491      67.682      59.266      52.523      47.674      44.820    
  43.886      44.821      47.675      52.522      67.676      74.727      82.964      91.591      98.845      102.63    
  102.05      98.604      95.545      95.546      98.607      102.05      102.64      98.854      91.597      82.967    
  74.728      67.674      62.051      58.191      56.239      56.241      58.194      62.054      77.483      82.964    
  89.088      95.643      101.59      105.21      105.23      102.05      98.061      96.282      98.066      102.05    
  105.24      105.22      101.59      95.642      89.084      82.960      77.479      73.034      70.098      69.066    
  70.101      73.038      87.394      91.591      95.643      99.410      102.89      105.21      105.21      102.63    
  98.692      95.771      95.774      98.699      102.63      105.21      105.21      102.88      99.403      95.637    
  91.586      87.391      83.727      81.534      81.535      83.729      95.124      98.845      101.59      102.89    
  103.18      102.89      101.59      98.845      95.124      91.787      90.436      91.790      95.126      98.844    
  101.58      102.88      103.17      102.88      101.58      98.845      95.126      91.789      90.436      91.787    
  98.692      102.63      105.21      105.21      102.89      99.409      95.643      91.591      87.395      83.729    
  81.535      81.535      83.728      87.391      91.586      95.637      99.404      102.88      105.21      105.22    
  102.63      98.698      95.774      95.771      98.062      102.05      105.23      105.21      101.59      95.643    
  89.087      82.964      77.483      73.038      70.100      69.065      70.098      73.034      77.479      82.960    
  89.085      95.642      101.59      105.22      105.24      102.05      98.066      96.282      95.545      98.604    
  102.05      102.63      98.845      91.591      82.964      74.727      67.676      62.054      58.194      56.241    
  56.239      58.191      62.051      67.674      74.728      82.967      91.597      98.853      102.64      102.05    
  98.607      95.546      90.115      90.967      92.380      91.906      87.798      80.275      71.113      62.240    
  54.671      48.593      44.246      41.696      40.861      41.694      44.245      48.593      54.674      62.245    
  71.119      80.281      87.802      91.907      92.379      90.965      90.965      90.968      91.065      89.703    
  85.202      77.268      67.270      57.234      48.593      41.718      36.622      33.345      31.766      31.766    
  33.345      36.623      41.720      48.596      57.239      67.274      77.269      85.199      89.696      91.059    
  92.380      93.110      92.385      89.706      84.147      75.481      64.762      53.828      44.246      36.622    
  30.879      26.994      24.799      24.094      24.798      26.994      30.881      36.624      44.248      53.829    
  64.760      75.474      84.137      89.697      91.908      95.237      95.237      91.911      85.205      75.482    
  63.885      52.115      41.696      33.345      26.994      22.533      19.779      18.482      18.482      19.778    
  22.533      26.994      33.344      41.693      52.111      63.879      75.474      85.199      87.802      94.781    
  97.214      94.777      87.799      77.268      64.761      52.114      40.861      31.766      24.799      19.779    
  16.498      14.677      14.097      14.676      16.498      19.778      24.797      31.763      40.858      52.111    
  64.759      77.268      80.281      90.665      96.442      96.439      90.658      80.272      67.267      53.826    
  41.694      31.766      24.094      18.482      14.677      12.363      11.278      11.278      12.364      14.678    
  18.482      24.092      31.763      41.694      53.829      67.274      71.119      83.780      92.741      95.985    
  92.736      83.772      71.110      57.232      44.245      33.345      24.798      18.482      14.097      11.278    
  9.7158      9.2174      9.7172      11.280      14.099      18.482      24.796      33.344      44.249      57.239    
  62.244      75.942      87.263      93.719      93.718      87.260      75.938      62.239      48.593      36.623    
  26.994      19.778      14.676      11.278      9.2174      8.2477      8.2483      9.2193      11.280      14.678    
  19.777      26.993      36.624      48.597      54.674      68.567      81.390      90.575      93.926      90.575    
  81.390      68.567      54.674      41.720      30.881      22.533      16.498      12.364      9.7172      8.2483    
  7.7777      8.2483      9.7177      12.364      16.498      22.532      30.880      41.720      48.594      62.240    
  75.938      87.260      93.717      93.718      87.263      75.943      62.245      48.596      36.624      26.994    
  19.778      14.678      11.280      9.2193      8.2483      8.2473      9.2172      11.278      14.677      19.778    
  26.994      36.623      44.245      57.232      71.110      83.773      92.736      95.984      92.740      83.780    
  71.119      57.239      44.248      33.344      24.797      18.482      14.099      11.280      9.7177      9.2172    
  9.7150      11.277      14.097      18.482      24.798      33.345      41.695      53.826      67.267      80.273    
  90.659      96.440      96.442      90.665      80.281      67.274      53.829      41.693      31.763      24.092    
  18.482      14.678      12.364      11.278      11.277      12.362      14.677      18.482      24.094      31.766    
  40.861      52.114      64.760      77.267      87.799      94.779      97.215      94.780      87.802      77.269    
  64.760      52.111      40.858      31.763      24.796      19.777      16.498      14.677      14.097      14.677    
  16.498      19.779      24.798      31.765      41.695      52.115      63.885      75.481      85.204      91.910    
  95.238      95.236      91.907      85.199      75.474      63.879      52.111      41.694      33.344      26.993    
  22.532      19.778      18.482      18.482      19.779      22.534      26.995      33.344      44.246      53.829    
  64.763      75.482      84.146      89.705      92.384      93.110      92.379      89.696      84.137      75.474    
  64.759      53.829      44.249      36.624      30.880      26.994      24.798      24.094      24.798      26.995    
  30.880      36.622      48.593      57.234      67.270      77.269      85.203      89.704      91.065      90.968    
  90.965      91.059      89.697      85.199      77.268      67.274      57.239      48.597      41.720      36.623    
  33.345      31.766      31.765      33.344      36.622      41.718      54.671      62.240      71.113      80.274    
  87.798      91.906      92.381      90.967      90.115      90.965      92.380      91.908      87.802      80.281    
  71.119      62.244      54.674      48.594      44.245      41.695      40.861      41.695      44.246      48.593    
  62.240      68.567      75.940      83.775      90.658      94.774      95.232      93.108      90.967      90.968    
  93.110      95.237      94.781      90.665      83.780      75.942      68.567      62.240      57.232      53.826    
  52.114      52.115      53.829      57.234      71.113      75.940      81.393      87.265      92.739      96.438    
  97.209      95.232      92.380      91.065      92.385      95.237      97.214      96.442      92.741      87.263    
  81.390      75.938      71.110      67.267      64.760      63.885      64.763      67.270      80.274      83.775    
  87.265      90.580      93.723      95.986      96.439      94.774      91.906      89.703      89.706      91.911    
  94.777      96.439      95.985      93.719      90.575      87.260      83.773      80.273      77.267      75.481    
  75.482      77.269      87.798      90.658      92.739      93.723      93.931      93.722      92.740      90.660    
  87.798      85.202      84.147      85.205      87.799      90.658      92.736      93.718      93.926      93.717    
  92.736      90.659      87.799      85.204      84.146      85.203      91.906      94.774      96.438      95.986    
  93.722      90.579      87.264      83.776      80.275      77.268      75.481      75.482      77.268      80.272    
  83.772      87.260      90.575      93.718      95.984      96.440      94.779      91.910      89.705      89.704    
  92.381      95.232      97.209      96.439      92.740      87.264      81.391      75.940      71.113      67.270    
  64.762      63.885      64.761      67.267      71.110      75.938      81.390      87.263      92.740      96.442    
  97.215      95.238      92.384      91.065      90.967      93.108      95.232      94.774      90.660      83.776    
  75.940      68.566      62.240      57.234      53.828      52.115      52.114      53.826      57.232      62.239    
  68.567      75.943      83.780      90.665      94.780      95.236      93.110      90.968      82.735      83.035    
  83.151      81.448      76.887      69.875      61.879      54.348      47.950      42.832      39.200      37.077    
  36.383      37.076      39.199      42.832      47.952      54.350      61.883      69.878      76.890      81.450    
  83.150      83.034      83.034      83.036      82.404      80.128      75.208      67.702      58.840      50.210    
  42.832      36.929      32.596      29.830      28.500      28.500      29.829      32.597      36.930      42.834    
  50.212      58.843      67.704      75.207      80.124      82.400      83.151      84.064      83.154      80.130    
  74.518      66.428      56.895      47.428      39.200      32.596      27.624      24.275      22.385      21.778    
  22.384      24.275      27.624      32.597      39.201      47.428      56.895      66.425      74.512      80.125    
  81.450      84.630      84.630      81.452      75.211      66.430      56.222      46.039      37.077      29.830    
  24.275      20.381      17.974      16.840      16.839      17.974      20.381      24.275      29.829      37.075    
  46.037      56.219      66.424      75.207      76.890      83.029      85.180      83.026      76.887      67.703    
  56.896      46.039      36.383      28.500      22.385      17.974      15.083      13.471      12.955      13.470    
  15.082      17.974      22.384      28.498      36.381      46.037      56.894      67.703      69.878      78.697    
  83.609      83.606      78.691      69.873      58.839      47.427      37.076      28.500      21.778      16.840    
  13.471      11.408      10.436      10.436      11.409      13.472      16.840      21.777      28.498      37.076    
  47.429      58.842      61.882      72.482      79.967      82.675      79.965      72.478      61.877      50.208    
  39.199      29.829      22.384      16.839      12.955      10.436      9.0294      8.5783      9.0302      10.438    
  12.957      16.839      22.383      29.829      39.202      50.213      54.350      65.804      75.219      80.571    
  80.571      75.219      65.803      54.347      42.832      32.597      24.275      17.974      13.470      10.436    
  8.5783      7.6980      7.6984      8.5797      10.438      13.472      17.973      24.274      32.597      42.834    
  47.952      59.649      70.329      77.932      80.698      77.933      70.331      59.650      47.952      36.930    
  27.624      20.381      15.082      11.409      9.0302      7.6984      7.2695      7.6983      9.0307      11.409    
  15.082      20.380      27.624      36.930      42.833      54.348      65.802      75.218      80.569      80.570    
  75.219      65.805      54.350      42.834      32.597      24.275      17.974      13.472      10.438      8.5797    
  7.6983      7.6975      8.5781      10.436      13.471      17.974      24.274      32.597      39.200      50.209    
  61.878      72.479      79.965      82.674      79.966      72.481      61.883      50.212      39.201      29.829    
  22.384      16.840      12.957      10.438      9.0307      8.5781      9.0284      10.435      12.956      16.839    
  22.384      29.829      37.076      47.427      58.839      69.873      78.694      83.608      83.608      78.696    
  69.878      58.843      47.428      37.075      28.498      21.777      16.839      13.472      11.409      10.436    
  10.435      11.407      13.470      16.839      21.778      28.499      36.383      46.039      56.895      67.701    
  76.887      83.027      85.181      83.028      76.890      67.704      56.895      46.037      36.381      28.498    
  22.383      17.973      15.082      13.471      12.956      13.470      15.083      17.975      22.384      28.499    
  37.076      46.040      56.223      66.428      75.209      81.451      84.630      84.630      81.450      75.207    
  66.425      56.219      46.037      37.076      29.829      24.274      20.380      17.974      16.839      16.839    
  17.975      20.382      24.275      29.829      39.200      47.428      56.897      66.429      74.518      80.129    
  83.153      84.064      83.150      80.124      74.512      66.424      56.894      47.429      39.202      32.597    
  27.624      24.274      22.384      21.778      22.384      24.275      27.625      32.597      42.832      50.209    
  58.840      67.703      75.210      80.129      82.404      83.035      83.034      82.400      80.125      75.207    
  67.703      58.842      50.213      42.834      36.930      32.597      29.829      28.499      28.499      29.829    
  32.597      36.930      47.950      54.347      61.878      69.873      76.887      81.449      83.152      83.035    
  82.735      83.034      83.151      81.450      76.890      69.878      61.882      54.350      47.952      42.833    
  39.200      37.076      36.383      37.076      39.200      42.832      54.347      59.649      65.804      72.479    
  78.692      83.024      84.627      84.062      83.035      83.036      84.064      84.630      83.029      78.697    
  72.482      65.804      59.649      54.348      50.209      47.427      46.039      46.040      47.428      50.209    
  61.878      65.804      70.332      75.221      79.966      83.607      85.178      84.626      83.151      82.404    
  83.154      84.630      85.180      83.609      79.967      75.219      70.329      65.802      61.878      58.839    
  56.895      56.223      56.897      58.840      69.873      72.479      75.221      77.936      80.573      82.676    
  83.608      83.025      81.448      80.128      80.130      81.452      83.026      83.606      82.675      80.571    
  77.932      75.218      72.479      69.873      67.701      66.428      66.429      67.703      76.887      78.692    
  79.966      80.573      80.701      80.572      79.967      78.694      76.887      75.208      74.518      75.211    
  76.887      78.691      79.965      80.571      80.698      80.569      79.965      78.694      76.887      75.209    
  74.518      75.210      81.449      83.024      83.607      82.676      80.572      77.934      75.220      72.480    
  69.875      67.702      66.428      66.430      67.703      69.873      72.478      75.219      77.933      80.570    
  82.674      83.608      83.027      81.451      80.129      80.129      83.152      84.627      85.178      83.608    
  79.967      75.220      70.330      65.803      61.879      58.840      56.895      56.222      56.896      58.839    
  61.877      65.803      70.331      75.219      79.966      83.608      85.181      84.630      83.153      82.404    
  83.035      84.062      84.626      83.025      78.694      72.480      65.803      59.648      54.348      50.210    
  47.428      46.039      46.039      47.427      50.208      54.347      59.650      65.805      72.481      78.696    
  83.028      84.630      84.064      83.035      72.225      72.072      71.167      68.629      64.037      57.904    
  51.340      45.300      40.164      36.125      33.291      31.636      31.095      31.636      33.290      36.125    
  40.165      45.301      51.341      57.906      64.038      68.630      71.167      72.071      72.072      72.073    
  70.911      68.074      63.165      56.506      49.116      42.114      36.125      31.325      27.844      25.634    
  24.573      24.573      25.633      27.843      31.325      36.125      42.115      49.118      56.508      63.166    
  68.073      70.909      71.168      72.164      71.169      68.076      62.799      55.702      47.723      39.994    
  33.291      27.844      23.765      21.024      19.475      18.977      19.474      21.023      23.765      27.843    
  33.291      39.995      47.724      55.702      62.796      68.073      68.630      71.483      71.483      68.631    
  63.168      55.704      47.248      38.943      31.636      25.634      21.024      17.792      15.785      14.835    
  14.834      15.785      17.792      21.024      25.633      31.635      38.942      47.247      55.701      63.165    
  64.038      69.115      70.904      69.113      64.037      56.507      47.725      38.943      31.095      24.573    
  19.475      15.785      13.350      11.983      11.543      11.982      13.350      15.786      19.474      24.572    
  31.094      38.942      47.724      56.507      57.906      64.927      68.840      68.838      64.923      57.903    
  49.116      39.994      31.636      24.573      18.977      14.835      11.983      10.219      9.3812      9.3810    
  10.219      11.984      14.836      18.976      24.572      31.636      39.995      49.117      51.341      59.656    