Graphite surface slap                   
   1.0000000000000000     
     2.441046    0.000000    0.000000
    -1.220523    2.114008    0.000000
     0.000000    0.000000   10.000000
   C 
     2
Direct
  0.000000  0.000000  0.000000
  0.333333  0.666667  0.000000

   24   24  100
 0.95515125254E+02 0.97008731610E+02 0.99959281284E+02 0.10103542919E+03 0.97704826939E+02
 0.89929625810E+02 0.79762209684E+02 0.69619348929E+02 0.60898029999E+02 0.53920390346E+02
 0.48893246031E+02 0.45929233267E+02 0.44957188493E+02 0.45927904283E+02 0.48892196948E+02
 0.53921443574E+02 0.60902007169E+02 0.69626000442E+02 0.79770561328E+02 0.89937897361E+02
 0.97710559896E+02 0.10103685329E+03 0.99957118788E+02 0.97006153463E+02 0.97006153463E+02
 0.97009781107E+02 0.98000669008E+02 0.97836173802E+02 0.94081155015E+02 0.86012530609E+02
 0.75092420338E+02 0.63774126997E+02 0.53920390346E+02 0.46113482219E+02 0.40292668657E+02
 0.36528057881E+02 0.34712686884E+02 0.34712788181E+02 0.36528621612E+02 0.40294442413E+02
 0.46117363333E+02 0.53926548139E+02 0.63781096064E+02 0.75097203913E+02 0.86012152586E+02
 0.94074771373E+02 0.97826139352E+02 0.97991610024E+02 0.99957118789E+02 0.10042843166E+03
 0.99964754781E+02 0.97839145235E+02 0.92616683222E+02 0.83662925631E+02 0.71992657677E+02
 0.59747572742E+02 0.48893246032E+02 0.40292668657E+02 0.33840732984E+02 0.29450850789E+02
 0.26963780382E+02 0.26165713692E+02 0.26964003902E+02 0.29451470749E+02 0.33842283946E+02
 0.40295527988E+02 0.48896411975E+02 0.59748269671E+02 0.71987929225E+02 0.83652124234E+02
 0.92602480274E+02 0.97826139352E+02 0.10103685329E+03 0.10439214923E+03 0.10439393359E+03
 0.10104234021E+03 0.94083621557E+02 0.83662472599E+02 0.70898308219E+02 0.57705124868E+02
 0.45929233268E+02 0.36528057882E+02 0.29450850789E+02 0.24468970848E+02 0.21390868209E+02
 0.19943584596E+02 0.19943302790E+02 0.21390121301E+02 0.24468097963E+02 0.29450214456E+02
 0.36527320798E+02 0.45926938055E+02 0.57699592367E+02 0.70889361657E+02 0.83652124234E+02
 0.94074771374E+02 0.97710559896E+02 0.10539410686E+03 0.10805980773E+03 0.10539131742E+03
 0.97707211895E+02 0.86010816419E+02 0.71989611391E+02 0.57703456440E+02 0.44957188495E+02
 0.34712686885E+02 0.26963780383E+02 0.21390868210E+02 0.17754944378E+02 0.15742187266E+02
 0.15102485936E+02 0.15742118661E+02 0.17754370188E+02 0.21389297069E+02 0.26960984804E+02
 0.34708773547E+02 0.44952705080E+02 0.57699592367E+02 0.71987929225E+02 0.86012152586E+02
 0.89937897361E+02 0.10176774370E+03 0.10834040658E+03 0.10833674687E+03 0.10175815966E+03
 0.89926046869E+02 0.75087485249E+02 0.59743763446E+02 0.45927904284E+02 0.34712788182E+02
 0.26165713693E+02 0.19943584597E+02 0.15742187266E+02 0.13199068761E+02 0.12011570198E+02
 0.12012442807E+02 0.13200942643E+02 0.15743279193E+02 0.19942283397E+02 0.26161987162E+02
 0.34708773547E+02 0.45926938055E+02 0.59748269671E+02 0.75097203913E+02 0.79770561328E+02
 0.94397036121E+02 0.10476227569E+03 0.10851639575E+03 0.10475532937E+03 0.94384859844E+02
 0.79756874925E+02 0.63770618343E+02 0.48892196949E+02 0.36528621613E+02 0.26964003903E+02
 0.19943302791E+02 0.15102485936E+02 0.12011570198E+02 0.10309875977E+02 0.97693013549E+01
 0.10312409718E+02 0.12015070908E+02 0.15104525637E+02 0.19942283397E+02 0.26960984804E+02
 0.36527320798E+02 0.48896411974E+02 0.63781096064E+02 0.69626000441E+02 0.85486343559E+02
 0.98653612666E+02 0.10618229421E+03 0.10618024758E+03 0.98647764416E+02 0.85478009097E+02
 0.69617851399E+02 0.53921443574E+02 0.40294442414E+02 0.29451470749E+02 0.21390121301E+02
 0.15742118661E+02 0.12012442807E+02 0.97693013549E+01 0.87197316987E+01 0.87207186144E+01
 0.97717851102E+01 0.12015070908E+02 0.15743279193E+02 0.21389297069E+02 0.29450214456E+02
 0.40295527988E+02 0.53926548139E+02 0.60902007169E+02 0.76935212287E+02 0.91850798286E+02
 0.10258290192E+03 0.10650567280E+03 0.10258290192E+03 0.91850798286E+02 0.76935212288E+02
 0.60902007169E+02 0.46117363333E+02 0.33842283946E+02 0.24468097963E+02 0.17754370188E+02
 0.13200942643E+02 0.10312409718E+02 0.87207186144E+01 0.82129022207E+01 0.87207186144E+01
 0.10312409718E+02 0.13200942643E+02 0.17754370188E+02 0.24468097963E+02 0.33842283946E+02
 0.46117363333E+02 0.53921443574E+02 0.69617851399E+02 0.85478009097E+02 0.98647764417E+02
 0.10618024758E+03 0.10618229422E+03 0.98653612667E+02 0.85486343560E+02 0.69626000442E+02
 0.53926548139E+02 0.40295527987E+02 0.29450214456E+02 0.21389297069E+02 0.15743279192E+02
 0.12015070908E+02 0.97717851102E+01 0.87207186144E+01 0.87197316987E+01 0.97693013549E+01
 0.12012442807E+02 0.15742118661E+02 0.21390121301E+02 0.29451470749E+02 0.40294442413E+02
 0.48892196948E+02 0.63770618342E+02 0.79756874925E+02 0.94384859846E+02 0.10475532937E+03
 0.10851639576E+03 0.10476227569E+03 0.94397036123E+02 0.79770561330E+02 0.63781096064E+02
 0.48896411974E+02 0.36527320797E+02 0.26960984804E+02 0.19942283397E+02 0.15104525637E+02
 0.12015070908E+02 0.10312409718E+02 0.97693013549E+01 0.10309875977E+02 0.12011570198E+02
 0.15102485936E+02 0.19943302790E+02 0.26964003902E+02 0.36528621612E+02 0.45927904282E+02
 0.59743763444E+02 0.75087485249E+02 0.89926046870E+02 0.10175815966E+03 0.10833674687E+03
 0.10834040659E+03 0.10176774371E+03 0.89937897364E+02 0.75097203914E+02 0.59748269671E+02
 0.45926938054E+02 0.34708773546E+02 0.26161987161E+02 0.19942283397E+02 0.15743279192E+02
 0.13200942643E+02 0.12012442807E+02 0.12011570198E+02 0.13199068761E+02 0.15742187266E+02
 0.19943584596E+02 0.26165713692E+02 0.34712788181E+02 0.44957188493E+02 0.57703456438E+02
 0.71989611389E+02 0.86010816419E+02 0.97707211897E+02 0.10539131743E+03 0.10805980774E+03
 0.10539410687E+03 0.97710559901E+02 0.86012152588E+02 0.71987929225E+02 0.57699592366E+02
 0.44952705079E+02 0.34708773546E+02 0.26960984804E+02 0.21389297069E+02 0.17754370188E+02
 0.15742118661E+02 0.15102485936E+02 0.15742187266E+02 0.17754944378E+02 0.21390868209E+02
 0.26963780382E+02 0.34712686884E+02 0.45929233267E+02 0.57705124866E+02 0.70898308217E+02
 0.83662472598E+02 0.94083621558E+02 0.10104234022E+03 0.10439393359E+03 0.10439214923E+03
 0.10103685330E+03 0.94074771378E+02 0.83652124236E+02 0.70889361657E+02 0.57699592366E+02
 0.45926938054E+02 0.36527320797E+02 0.29450214456E+02 0.24468097963E+02 0.21390121301E+02
 0.19943302791E+02 0.19943584597E+02 0.21390868210E+02 0.24468970848E+02 0.29450850789E+02
 0.36528057881E+02 0.48893246031E+02 0.59747572740E+02 0.71992657675E+02 0.83662925630E+02
 0.92616683222E+02 0.97839145238E+02 0.99964754786E+02 0.10042843167E+03 0.99957118796E+02
 0.97826139358E+02 0.92602480279E+02 0.83652124237E+02 0.71987929225E+02 0.59748269671E+02
 0.48896411974E+02 0.40295527987E+02 0.33842283946E+02 0.29451470749E+02 0.26964003903E+02
 0.26165713693E+02 0.26963780383E+02 0.29450850789E+02 0.33840732984E+02 0.40292668657E+02
 0.53920390346E+02 0.63774126996E+02 0.75092420337E+02 0.86012530608E+02 0.94081155015E+02
 0.97836173804E+02 0.98000669012E+02 0.97009781114E+02 0.97006153471E+02 0.97991610031E+02
 0.97826139359E+02 0.94074771378E+02 0.86012152589E+02 0.75097203914E+02 0.63781096065E+02
 0.53926548139E+02 0.46117363333E+02 0.40294442414E+02 0.36528621613E+02 0.34712788182E+02
 0.34712686885E+02 0.36528057882E+02 0.40292668657E+02 0.46113482219E+02 0.60898029999E+02
 0.69619348928E+02 0.79762209684E+02 0.89929625810E+02 0.97704826941E+02 0.10103542919E+03
 0.99959281288E+02 0.97008731616E+02 0.95515125262E+02 0.97006153472E+02 0.99957118796E+02
 0.10103685330E+03 0.97710559901E+02 0.89937897364E+02 0.79770561330E+02 0.69626000442E+02
 0.60902007169E+02 0.53921443574E+02 0.48892196949E+02 0.45927904284E+02 0.44957188495E+02
 0.45929233268E+02 0.48893246032E+02 0.53920390346E+02 0.69619348928E+02 0.76934217739E+02
 0.85482657664E+02 0.94390371002E+02 0.10175870541E+03 0.10538484272E+03 0.10438515751E+03
 0.10042471981E+03 0.97008731616E+02 0.97009781115E+02 0.10042843167E+03 0.10439214923E+03
 0.10539410687E+03 0.10176774371E+03 0.94397036124E+02 0.85486343561E+02 0.76935212288E+02
 0.69617851399E+02 0.63770618342E+02 0.59743763446E+02 0.57703456440E+02 0.57705124868E+02
 0.59747572742E+02 0.63774126997E+02 0.79762209684E+02 0.85482657664E+02 0.91854022301E+02
 0.98654527322E+02 0.10475983635E+03 0.10833420041E+03 0.10805095936E+03 0.10438515751E+03
 0.99959281289E+02 0.98000669014E+02 0.99964754788E+02 0.10439393359E+03 0.10805980774E+03
 0.10834040659E+03 0.10476227569E+03 0.98653612668E+02 0.91850798286E+02 0.85478009097E+02
 0.79756874925E+02 0.75087485249E+02 0.71989611391E+02 0.70898308219E+02 0.71992657677E+02
 0.75092420338E+02 0.89929625810E+02 0.94390371001E+02 0.98654527321E+02 0.10258976549E+03
 0.10618772936E+03 0.10851852551E+03 0.10833420041E+03 0.10538484272E+03 0.10103542919E+03
 0.97836173806E+02 0.97839145240E+02 0.10104234022E+03 0.10539131743E+03 0.10833674687E+03
 0.10851639576E+03 0.10618229422E+03 0.10258290192E+03 0.98647764416E+02 0.94384859844E+02
 0.89926046869E+02 0.86010816419E+02 0.83662472600E+02 0.83662925632E+02 0.86012530609E+02
 0.97704826940E+02 0.10175870540E+03 0.10475983635E+03 0.10618772936E+03 0.10651420013E+03
 0.10618772936E+03 0.10475983635E+03 0.10175870541E+03 0.97704826942E+02 0.94081155017E+02
 0.92616683225E+02 0.94083621560E+02 0.97707211899E+02 0.10175815966E+03 0.10475532937E+03
 0.10618024759E+03 0.10650567280E+03 0.10618024758E+03 0.10475532937E+03 0.10175815966E+03
 0.97707211895E+02 0.94083621557E+02 0.92616683222E+02 0.94081155015E+02 0.10103542919E+03
 0.10538484272E+03 0.10833420041E+03 0.10851852551E+03 0.10618772936E+03 0.10258976549E+03
 0.98654527322E+02 0.94390371003E+02 0.89929625811E+02 0.86012530610E+02 0.83662925632E+02
 0.83662472600E+02 0.86010816421E+02 0.89926046872E+02 0.94384859847E+02 0.98647764418E+02
 0.10258290192E+03 0.10618229421E+03 0.10851639575E+03 0.10833674687E+03 0.10539131742E+03
 0.10104234021E+03 0.97839145235E+02 0.97836173802E+02 0.99959281284E+02 0.10438515751E+03
 0.10805095936E+03 0.10833420041E+03 0.10475983635E+03 0.98654527321E+02 0.91854022301E+02
 0.85482657664E+02 0.79762209685E+02 0.75092420338E+02 0.71992657676E+02 0.70898308218E+02
 0.71989611390E+02 0.75087485250E+02 0.79756874926E+02 0.85478009098E+02 0.91850798286E+02
 0.98653612666E+02 0.10476227569E+03 0.10834040658E+03 0.10805980773E+03 0.10439393359E+03
 0.99964754781E+02 0.98000669008E+02 0.97008731610E+02 0.10042471981E+03 0.10438515751E+03
 0.10538484272E+03 0.10175870540E+03 0.94390371002E+02 0.85482657664E+02 0.76934217739E+02
 0.69619348928E+02 0.63774126997E+02 0.59747572741E+02 0.57705124866E+02 0.57703456439E+02
 0.59743763445E+02 0.63770618342E+02 0.69617851399E+02 0.76935212288E+02 0.85486343559E+02
 0.94397036121E+02 0.10176774370E+03 0.10539410686E+03 0.10439214923E+03 0.10042843166E+03
 0.97009781107E+02 0.94231345018E+02 0.95544802415E+02 0.98061125965E+02 0.98692098294E+02
 0.95124300872E+02 0.87394563482E+02 0.77483458934E+02 0.67675764518E+02 0.59262148171E+02
 0.52521882499E+02 0.47675081649E+02 0.44821167615E+02 0.43885746646E+02 0.44819688248E+02
 0.47673846316E+02 0.52522729951E+02 0.59265753940E+02 0.67681775323E+02 0.77491016252E+02
 0.87402146042E+02 0.95129657747E+02 0.98693503708E+02 0.98059173909E+02 0.95542426973E+02
 0.95542556968E+02 0.95545823711E+02 0.96281978475E+02 0.95770906509E+02 0.91786971192E+02
 0.83728736563E+02 0.73038081520E+02 0.62054147583E+02 0.52521882499E+02 0.44963001549E+02
 0.39333959929E+02 0.35698210227E+02 0.33945492260E+02 0.33945335069E+02 0.35698365159E+02
 0.39335551961E+02 0.44966570596E+02 0.52527239443E+02 0.62060336066E+02 0.73042847522E+02
 0.83729071429E+02 0.91781510925E+02 0.95761782156E+02 0.96273737187E+02 0.98059518628E+02
 0.98607132968E+02 0.98066336333E+02 0.95773916001E+02 0.90436410935E+02 0.81534989972E+02
 0.70100044591E+02 0.58194252080E+02 0.47675081650E+02 0.39333959929E+02 0.33067790871E+02
 0.28811126137E+02 0.26401498371E+02 0.25628312399E+02 0.26401395063E+02 0.28811743498E+02
 0.33069550270E+02 0.39336463766E+02 0.47677488921E+02 0.58194905649E+02 0.70096344596E+02
 0.81525499347E+02 0.90423280359E+02 0.95761931770E+02 0.98693807871E+02 0.10205269314E+03
 0.10205404755E+03 0.98698582425E+02 0.91789855396E+02 0.81535109351E+02 0.69065416027E+02
 0.56240624341E+02 0.44821167617E+02 0.35698210228E+02 0.28811126137E+02 0.23965479161E+02
 0.20972508728E+02 0.19565053311E+02 0.19564585467E+02 0.20971690965E+02 0.23965050180E+02
 0.28810781813E+02 0.35697118466E+02 0.44818636651E+02 0.56235707005E+02 0.69057367863E+02
 0.81525214804E+02 0.91781375996E+02 0.95129657748E+02 0.10263529617E+03 0.10524256335E+03
 0.10263210716E+03 0.95126427766E+02 0.83727859820E+02 0.70097901293E+02 0.56239217323E+02
 0.43885746647E+02 0.33945492261E+02 0.26401498371E+02 0.20972508728E+02 0.17429461288E+02
 0.15466968700E+02 0.14842730593E+02 0.15466560365E+02 0.17428922545E+02 0.20971369301E+02
 0.26398880235E+02 0.33941540314E+02 0.43881597658E+02 0.56235810714E+02 0.70095999878E+02
 0.83728533562E+02 0.87401897450E+02 0.98853502625E+02 0.10521820626E+03 0.10521444632E+03
 0.98844158446E+02 0.87391124568E+02 0.73033907576E+02 0.58190889752E+02 0.44819688249E+02
 0.33945335070E+02 0.25628312400E+02 0.19565053312E+02 0.15466968700E+02 0.12983588700E+02
 0.11822676732E+02 0.11823218401E+02 0.12984977818E+02 0.15468062966E+02 0.19564056935E+02
 0.25624843972E+02 0.33941699593E+02 0.44819150166E+02 0.58195134621E+02 0.73042468935E+02
 0.77490774636E+02 0.91597056129E+02 0.10159073838E+03 0.10520979335E+03 0.10158412869E+03
 0.91585915016E+02 0.77478504696E+02 0.62050868733E+02 0.47673846317E+02 0.35698365160E+02
 0.26401395064E+02 0.19564585467E+02 0.14842730593E+02 0.11822676732E+02 0.10157453045E+02
 0.96277402671E+01 0.10159502336E+02 0.11825868386E+02 0.14844904451E+02 0.19563827963E+02
 0.26398638618E+02 0.35697403009E+02 0.47678075256E+02 0.62060485680E+02 0.67681670928E+02
 0.82966934792E+02 0.95642179682E+02 0.10288490394E+03 0.10288311325E+03 0.95637139456E+02
 0.82959760407E+02 0.67674433581E+02 0.52522729951E+02 0.39335551962E+02 0.28811743498E+02
 0.20971690965E+02 0.15466560365E+02 0.11823218401E+02 0.96277402671E+01 0.85989317636E+01
 0.85997557194E+01 0.96300420808E+01 0.11825992400E+02 0.15467958008E+02 0.20970857034E+02
 0.28810373255E+02 0.39336587780E+02 0.52527513072E+02 0.59265753940E+02 0.74727602580E+02
 0.89084343306E+02 0.99403430595E+02 0.10317351670E+03 0.99403659920E+02 0.89084740180E+02
 0.74727892461E+02 0.59265753940E+02 0.44966570596E+02 0.33069550270E+02 0.23965050180E+02
 0.17428922545E+02 0.12984977818E+02 0.10159502336E+02 0.85997557194E+01 0.81015575228E+01
 0.85997295125E+01 0.10159743953E+02 0.12985357013E+02 0.17428922545E+02 0.23964615415E+02
 0.33069205552E+02 0.44966571203E+02 0.52522834346E+02 0.67674449226E+02 0.82959636393E+02
 0.95636883925E+02 0.10288265022E+03 0.10288440038E+03 0.95642055669E+02 0.82967198467E+02
 0.67681775323E+02 0.52527239443E+02 0.39336463765E+02 0.28810781813E+02 0.20971369301E+02
 0.15468062965E+02 0.11825868385E+02 0.96300420808E+01 0.85997295125E+01 0.85986837344E+01
 0.96276162524E+01 0.11823571388E+02 0.15467072632E+02 0.20971851494E+02 0.28811619483E+02
 0.39335526362E+02 0.47674087932E+02 0.62051008393E+02 0.77478659954E+02 0.91586294564E+02
 0.10158437031E+03 0.10520941381E+03 0.10159009989E+03 0.91596916472E+02 0.77491016253E+02
 0.62060336066E+02 0.47677488921E+02 0.35697118465E+02 0.26398880234E+02 0.19564056935E+02
 0.14844904451E+02 0.11825992400E+02 0.10159743953E+02 0.96276162525E+01 0.10156969813E+02
 0.11822447759E+02 0.14842972209E+02 0.19564870010E+02 0.26401498165E+02 0.35698514774E+02
 0.44819936840E+02 0.58190979064E+02 0.73033678603E+02 0.87391275143E+02 0.98844974465E+02
 0.10521505484E+03 0.10521797730E+03 0.98853133996E+02 0.87402146045E+02 0.73042847523E+02
 0.58194905648E+02 0.44818636650E+02 0.33941540312E+02 0.25624843971E+02 0.19563827962E+02
 0.15467958007E+02 0.12985357013E+02 0.11823571389E+02 0.11822447759E+02 0.12983130755E+02
 0.15466809421E+02 0.19564997741E+02 0.25628083427E+02 0.33945255710E+02 0.43885746646E+02
 0.56239465913E+02 0.70097504417E+02 0.83727092021E+02 0.95126427768E+02 0.10263287497E+03
 0.10524296023E+03 0.10263504758E+03 0.95129657752E+02 0.83729071431E+02 0.70096344597E+02
 0.56235707005E+02 0.43881597657E+02 0.33941699592E+02 0.26398638618E+02 0.20970857034E+02
 0.17428922545E+02 0.15467072632E+02 0.14842972210E+02 0.15466809421E+02 0.17429461288E+02
 0.20972612437E+02 0.26401153652E+02 0.33944954394E+02 0.44820863453E+02 0.56241048543E+02
 0.69065700568E+02 0.81534445260E+02 0.91788983810E+02 0.98698487425E+02 0.10205433210E+03
 0.10205254826E+03 0.98693503715E+02 0.91781510929E+02 0.81525499349E+02 0.69057367864E+02
 0.56235810714E+02 0.44819150165E+02 0.35697403008E+02 0.28810373255E+02 0.23964615415E+02
 0.20971851494E+02 0.19564870010E+02 0.19564997741E+02 0.20972612437E+02 0.23966048247E+02
 0.28811410680E+02 0.35697776070E+02 0.47674736931E+02 0.58194391739E+02 0.70100786182E+02
 0.81535369518E+02 0.90436066217E+02 0.95773536457E+02 0.98066284182E+02 0.98606993315E+02
 0.98059173917E+02 0.95761782162E+02 0.90423280363E+02 0.81525214806E+02 0.70095999879E+02
 0.58195134621E+02 0.47678075255E+02 0.39336587780E+02 0.33069205552E+02 0.28811619484E+02
 0.26401498165E+02 0.25628083428E+02 0.26401153653E+02 0.28811410680E+02 0.33068480307E+02
 0.39334109543E+02 0.52521752504E+02 0.62053858308E+02 0.73038231133E+02 0.83729265724E+02
 0.91787408622E+02 0.95771136444E+02 0.96282128094E+02 0.95545833672E+02 0.95542426981E+02
 0.96273737195E+02 0.95761931777E+02 0.91781376001E+02 0.83728533565E+02 0.73042468937E+02
 0.62060485681E+02 0.52527513072E+02 0.44966571203E+02 0.39335526362E+02 0.35698514774E+02
 0.33945255712E+02 0.33944954395E+02 0.35697776070E+02 0.39334109544E+02 0.44963300777E+02
 0.59262148171E+02 0.67675605239E+02 0.77483062060E+02 0.87394203555E+02 0.95124300873E+02
 0.98692458224E+02 0.98061522843E+02 0.95544961701E+02 0.94231345026E+02 0.95542556976E+02
 0.98059518635E+02 0.98693807878E+02 0.95129657753E+02 0.87401897454E+02 0.77490774637E+02
 0.67681670928E+02 0.59265753940E+02 0.52522834346E+02 0.47674087933E+02 0.44819936841E+02
 0.43885746647E+02 0.44820863454E+02 0.47674736931E+02 0.52521752505E+02 0.67675605239E+02
 0.74726947095E+02 0.82963841270E+02 0.91590742298E+02 0.98844758500E+02 0.10262659758E+03
 0.10204630484E+03 0.98603689775E+02 0.95544802422E+02 0.95545823719E+02 0.98607132976E+02
 0.10205269315E+03 0.10263529618E+03 0.98853502630E+02 0.91597056133E+02 0.82966934793E+02
 0.74727602580E+02 0.67674449226E+02 0.62051008393E+02 0.58190979065E+02 0.56239465915E+02
 0.56241048544E+02 0.58194391740E+02 0.62053858309E+02 0.77483062060E+02 0.82963841269E+02
 0.89087817968E+02 0.95643223010E+02 0.10158817726E+03 0.10521243259E+03 0.10523481879E+03
 0.10204616518E+03 0.98061125970E+02 0.96281978481E+02 0.98066336340E+02 0.10205404755E+03
 0.10524256336E+03 0.10521820627E+03 0.10159073838E+03 0.95642179684E+02 0.89084343307E+02
 0.82959636393E+02 0.77478659953E+02 0.73033678604E+02 0.70097504419E+02 0.69065700570E+02
 0.70100786183E+02 0.73038231134E+02 0.87394203555E+02 0.91590742297E+02 0.95643223009E+02
 0.99410096275E+02 0.10288975207E+03 0.10521170698E+03 0.10521281213E+03 0.10262683747E+03
 0.98692098298E+02 0.95770906514E+02 0.95773916006E+02 0.98698582430E+02 0.10263210717E+03
 0.10521444633E+03 0.10520979336E+03 0.10288490395E+03 0.99403430595E+02 0.95636883924E+02
 0.91586294563E+02 0.87391275142E+02 0.83727092021E+02 0.81534445261E+02 0.81535369519E+02
 0.83729265724E+02 0.95124300872E+02 0.98844758498E+02 0.10158817726E+03 0.10288975206E+03
 0.10318120012E+03 0.10288954457E+03 0.10158857413E+03 0.98845485204E+02 0.95124300874E+02
 0.91786971194E+02 0.90436410938E+02 0.91789855399E+02 0.95126427770E+02 0.98844158451E+02
 0.10158412870E+03 0.10288311325E+03 0.10317351670E+03 0.10288265022E+03 0.10158437031E+03
 0.98844974462E+02 0.95126427766E+02 0.91788983809E+02 0.90436066217E+02 0.91787408622E+02
 0.98692458222E+02 0.10262659757E+03 0.10521243258E+03 0.10521170698E+03 0.10288954457E+03
 0.99409337181E+02 0.95642843463E+02 0.91591261505E+02 0.87394563483E+02 0.83728736564E+02
 0.81534989973E+02 0.81535109352E+02 0.83727859821E+02 0.87391124570E+02 0.91585915019E+02
 0.95637139458E+02 0.99403659921E+02 0.10288440038E+03 0.10520941380E+03 0.10521505484E+03
 0.10263287496E+03 0.98698487421E+02 0.95773536454E+02 0.95771136442E+02 0.98061522839E+02
 0.10204630483E+03 0.10523481879E+03 0.10521281213E+03 0.10158857413E+03 0.95642843462E+02
 0.89087024220E+02 0.82963701610E+02 0.77483458934E+02 0.73038081519E+02 0.70100044591E+02
 0.69065416026E+02 0.70097901293E+02 0.73033907577E+02 0.77478504697E+02 0.82959760409E+02
 0.89084740181E+02 0.95642055668E+02 0.10159009989E+03 0.10521797729E+03 0.10524296023E+03
 0.10205433209E+03 0.98066284177E+02 0.96282128090E+02 0.95544961695E+02 0.98603689770E+02
 0.10204616517E+03 0.10262683746E+03 0.98845485202E+02 0.91591261504E+02 0.82963701609E+02
 0.74726667775E+02 0.67675764518E+02 0.62054147583E+02 0.58194252079E+02 0.56240624340E+02
 0.56239217321E+02 0.58190889752E+02 0.62050868734E+02 0.67674433581E+02 0.74727892461E+02
 0.82967198466E+02 0.91596916469E+02 0.98853133992E+02 0.10263504758E+03 0.10205254826E+03
 0.98606993308E+02 0.95545833665E+02 0.90114540899E+02 0.90966987001E+02 0.92380423121E+02
 0.91905652157E+02 0.87797798580E+02 0.80275211940E+02 0.71113353365E+02 0.62240239589E+02
 0.54671354490E+02 0.48592816654E+02 0.44246234355E+02 0.41695522123E+02 0.40860861326E+02
 0.41694228289E+02 0.44245063954E+02 0.48593292732E+02 0.54673994835E+02 0.62244670904E+02
 0.71118932327E+02 0.80280985743E+02 0.87802160065E+02 0.91907057772E+02 0.92379036630E+02
 0.90965098426E+02 0.90965360937E+02 0.90967844351E+02 0.91064838980E+02 0.89703032931E+02
 0.85202416646E+02 0.77267843733E+02 0.67269995368E+02 0.57234415987E+02 0.48592816654E+02
 0.41717824370E+02 0.36622136620E+02 0.33345123266E+02 0.31766401047E+02 0.31766030960E+02
 0.33344802518E+02 0.36623089221E+02 0.41720288579E+02 0.48596476465E+02 0.57238972000E+02
 0.67274173346E+02 0.77269031168E+02 0.85198901879E+02 0.89696271263E+02 0.91058575269E+02
 0.92379616543E+02 0.93110182693E+02 0.92384658837E+02 0.89705682392E+02 0.84146741438E+02
 0.75481060550E+02 0.64761988360E+02 0.53828218084E+02 0.44246234356E+02 0.36622136620E+02
 0.30879313451E+02 0.26994062196E+02 0.24798590796E+02 0.24094324466E+02 0.24798092403E+02
 0.26994323613E+02 0.30880662538E+02 0.36623707886E+02 0.44247561878E+02 0.53828861333E+02
 0.64759970838E+02 0.75474390338E+02 0.84136722100E+02 0.89696503475E+02 0.91907517717E+02
 0.95236677218E+02 0.95237360473E+02 0.91910741111E+02 0.85205321327E+02 0.75481784465E+02
 0.63884931747E+02 0.52114615766E+02 0.41695522124E+02 0.33345123267E+02 0.26994062196E+02
 0.22533125924E+02 0.19778543783E+02 0.18482301438E+02 0.18481680820E+02 0.19777623298E+02
 0.22532939869E+02 0.26993853671E+02 0.33343812110E+02 0.41693180139E+02 0.52111026723E+02
 0.63878948842E+02 0.75473900095E+02 0.85198643848E+02 0.87802160066E+02 0.94780763812E+02
 0.97213889965E+02 0.94777490474E+02 0.87799265852E+02 0.77268008095E+02 0.64761222454E+02
 0.52113779645E+02 0.40860861327E+02 0.31766401048E+02 0.24798590797E+02 0.19778543784E+02
 0.16497979430E+02 0.14677108461E+02 0.14096855756E+02 0.14676447170E+02 0.16497537691E+02
 0.19777958527E+02 0.24796543179E+02 0.31763017773E+02 0.40857589927E+02 0.52111211135E+02
 0.64759390925E+02 0.77268124301E+02 0.80280617996E+02 0.90665258331E+02 0.96442484526E+02
 0.96439196794E+02 0.90657538459E+02 0.80272473975E+02 0.67267405129E+02 0.53826013220E+02
 0.41694228290E+02 0.31766030961E+02 0.24094324467E+02 0.18482301438E+02 0.14677108461E+02
 0.12362800268E+02 0.11277515382E+02 0.11277731922E+02 0.12363689348E+02 0.14678233248E+02
 0.18481914641E+02 0.24091728788E+02 0.31763294383E+02 0.41694068427E+02 0.53829259378E+02
 0.67273543089E+02 0.71118515110E+02 0.83780008578E+02 0.92740908854E+02 0.95984809627E+02
 0.92735908636E+02 0.83771920364E+02 0.71109750245E+02 0.57232052122E+02 0.44245063954E+02
 0.33344802519E+02 0.24798092403E+02 0.18481680820E+02 0.14096855756E+02 0.11277515382E+02
 0.97157875612E+01 0.92174015343E+01 0.97172332427E+01 0.11280194242E+02 0.14099107887E+02
 0.18481516596E+02 0.24796125962E+02 0.33344302353E+02 0.44248559007E+02 0.57239204212E+02
 0.62244429204E+02 0.75942277282E+02 0.87263345267E+02 0.93718996165E+02 0.93717917607E+02
 0.87260292414E+02 0.75937741776E+02 0.62239443170E+02 0.48593292732E+02 0.36623089221E+02
 0.26994323613E+02 0.19777623298E+02 0.14676447170E+02 0.11277731923E+02 0.92174015344E+01
 0.82477236788E+01 0.82483254027E+01 0.92193258476E+01 0.11280405644E+02 0.14678046604E+02
 0.19777072470E+02 0.26993152026E+02 0.36623919287E+02 0.48596920079E+02 0.54673994835E+02
 0.68566910914E+02 0.81389594080E+02 0.90574918021E+02 0.93925781001E+02 0.90575415677E+02
 0.81390397879E+02 0.68567471750E+02 0.54673994835E+02 0.41720288579E+02 0.30880662538E+02
 0.22532939869E+02 0.16497537691E+02 0.12363689348E+02 0.97172332427E+01 0.82483254027E+01
 0.77776599559E+01 0.82482828766E+01 0.97176504591E+01 0.12364341321E+02 0.16497537691E+02
 0.22532195699E+02 0.30880082625E+02 0.41720310294E+02 0.48593534432E+02 0.62239538677E+02
 0.75937530376E+02 0.87259752233E+02 0.93716973030E+02 0.93718033182E+02 0.87263133868E+02
 0.75942795592E+02 0.62244670904E+02 0.48596476465E+02 0.36623707886E+02 0.26993853671E+02
 0.19777958526E+02 0.14678233248E+02 0.11280194242E+02 0.92193258476E+01 0.82482828766E+01
 0.82473008761E+01 0.92171901330E+01 0.11278341369E+02 0.14677333226E+02 0.19777902140E+02
 0.26994112211E+02 0.36623068410E+02 0.44245481170E+02 0.57232359031E+02 0.71110136828E+02
 0.83772671949E+02 0.92736325855E+02 0.95984058047E+02 0.92739687841E+02 0.83779701672E+02
 0.71118932328E+02 0.57238972000E+02 0.44247561878E+02 0.33343812110E+02 0.24796543178E+02
 0.18481914641E+02 0.14099107887E+02 0.11280405644E+02 0.97176504591E+01 0.92171901330E+01
 0.97149531284E+01 0.11277117337E+02 0.14097272973E+02 0.18482171063E+02 0.24798255099E+02
 0.33345034731E+02 0.41694596036E+02 0.53826104356E+02 0.67267007084E+02 0.80272827514E+02
 0.90659092487E+02 0.96440346427E+02 0.96442086485E+02 0.90664553381E+02 0.80280985745E+02
 0.67274173347E+02 0.53828861333E+02 0.41693180138E+02 0.31763017772E+02 0.24091728787E+02
 0.18481516596E+02 0.14678046604E+02 0.12364341321E+02 0.11278341369E+02 0.11277117337E+02
 0.12362004178E+02 0.14676831851E+02 0.18482209240E+02 0.24093926421E+02 0.31765865127E+02
 0.40860861326E+02 0.52114147390E+02 0.64760418654E+02 0.77266581857E+02 0.87799265855E+02
 0.94778916717E+02 0.97214693769E+02 0.94780396070E+02 0.87802160069E+02 0.77269031170E+02
 0.64759970839E+02 0.52111026723E+02 0.40857589926E+02 0.31763294382E+02 0.24796125962E+02
 0.19777072470E+02 0.16497537691E+02 0.14677333226E+02 0.14097272973E+02 0.14676831851E+02
 0.16497979430E+02 0.19778728195E+02 0.24798010883E+02 0.31765494180E+02 0.41695062178E+02
 0.52115412917E+02 0.63885421989E+02 0.75480542638E+02 0.85203675105E+02 0.91910479774E+02
 0.95237850722E+02 0.95236493888E+02 0.91907057778E+02 0.85198901883E+02 0.75474390340E+02
 0.63878948842E+02 0.52111211135E+02 0.41694068427E+02 0.33344302353E+02 0.26993152026E+02
 0.22532195699E+02 0.19777902140E+02 0.18482171063E+02 0.18482209240E+02 0.19778728196E+02
 0.22534106410E+02 0.26994552439E+02 0.33344400811E+02 0.44245654442E+02 0.53828524992E+02
 0.64763372071E+02 0.75481812133E+02 0.84146161526E+02 0.89704930812E+02 0.92384434956E+02
 0.93109875790E+02 0.92379036636E+02 0.89696271268E+02 0.84136722104E+02 0.75473900097E+02
 0.64759390926E+02 0.53829259378E+02 0.44248559007E+02 0.36623919287E+02 0.30880082625E+02
 0.26994112211E+02 0.24798255100E+02 0.24093926422E+02 0.24798010884E+02 0.26994552440E+02
 0.30880473278E+02 0.36622368832E+02 0.48592554143E+02 0.57233876866E+02 0.67270227580E+02
 0.77268827529E+02 0.85203340414E+02 0.89703552305E+02 0.91065071197E+02 0.90967769661E+02
 0.90965098433E+02 0.91058575276E+02 0.89696503481E+02 0.85198643852E+02 0.77268124303E+02
 0.67273543090E+02 0.57239204213E+02 0.48596920079E+02 0.41720310294E+02 0.36623068410E+02
 0.33345034731E+02 0.31765865128E+02 0.31765494181E+02 0.33344400811E+02 0.36622368833E+02
 0.41718288795E+02 0.54671354490E+02 0.62239962979E+02 0.71112549566E+02 0.80274430058E+02
 0.87797798582E+02 0.91906434041E+02 0.92381226924E+02 0.90967263616E+02 0.90114540905E+02
 0.90965360944E+02 0.92379616550E+02 0.91907517723E+02 0.87802160070E+02 0.80280617999E+02
 0.71118515112E+02 0.62244429204E+02 0.54673994835E+02 0.48593534432E+02 0.44245481171E+02
 0.41694596036E+02 0.40860861327E+02 0.41695062179E+02 0.44245654442E+02 0.48592554143E+02
 0.62239962979E+02 0.68566708101E+02 0.75940397774E+02 0.83775090763E+02 0.90658152944E+02
 0.94774004115E+02 0.95231926485E+02 0.93107531618E+02 0.90966987007E+02 0.90967844358E+02
 0.93110182700E+02 0.95236677224E+02 0.94780763818E+02 0.90665258335E+02 0.83780008581E+02
 0.75942277283E+02 0.68566910915E+02 0.62239538677E+02 0.57232359031E+02 0.53826104357E+02
 0.52114147392E+02 0.52115412918E+02 0.53828524993E+02 0.57233876867E+02 0.71112549566E+02
 0.75940397774E+02 0.81392794730E+02 0.87264519117E+02 0.92738849491E+02 0.96438319648E+02
 0.97208676352E+02 0.95231619577E+02 0.92380423126E+02 0.91064838986E+02 0.92384658844E+02
 0.95237360480E+02 0.97213889971E+02 0.96442484532E+02 0.92740908858E+02 0.87263345269E+02
 0.81389594080E+02 0.75937530375E+02 0.71110136828E+02 0.67267007084E+02 0.64760418655E+02
 0.63885421990E+02 0.64763372072E+02 0.67270227580E+02 0.80274430058E+02 0.83775090762E+02
 0.87264519116E+02 0.90580308018E+02 0.93722567058E+02 0.95986441588E+02 0.96439071232E+02
 0.94774448791E+02 0.91905652161E+02 0.89703032935E+02 0.89705682397E+02 0.91910741116E+02
 0.94777490480E+02 0.96439196800E+02 0.95984809631E+02 0.93718996168E+02 0.90574918022E+02
 0.87259752232E+02 0.83772671947E+02 0.80272827513E+02 0.77266581856E+02 0.75480542638E+02