   2   2   0   0
  0.2580196E+02  0.2441046E-09  0.2441046E-09  0.1000000E-08  0.5000000E-15
   1.0000000000000000E-004
  CAR 
 Graphite surface slap                   
     14.29321854    -22.53445281  301     -0.77471323      1.00000000
    -22.534  0.0000E+00  0.0000E+00
    -22.412  0.0000E+00  0.0000E+00
    -22.289  0.0000E+00  0.0000E+00
    -22.166  0.1804E-27  0.2215E-28
    -22.043  0.2169E-23  0.2663E-24
    -21.921  0.1200E-19  0.1473E-20
    -21.798  0.3040E-16  0.3733E-17
    -21.675  0.3509E-13  0.4311E-14
    -21.552  0.1821E-10  0.2240E-11
    -21.430  0.4192E-08  0.5169E-09
    -21.307  0.4169E-06  0.5169E-07
    -21.184  0.1702E-04  0.2141E-05
    -21.061  0.2514E-03  0.3301E-04
    -20.939  0.7486E-03  0.1249E-03
    -20.816 -0.4124E-02 -0.3814E-03
    -20.693 -0.5410E-03 -0.4478E-03
    -20.570  0.6516E-01  0.7551E-02
    -20.448  0.5986E-01  0.1490E-01
    -20.325  0.2119E+00  0.4092E-01
    -20.202  0.6955E+00  0.1263E+00
    -20.079  0.4323E+00  0.1794E+00
    -19.957 -0.4020E-01  0.1744E+00
    -19.834 -0.7756E-01  0.1649E+00
    -19.711  0.2947E+00  0.2011E+00
    -19.588  0.6787E+00  0.2844E+00
    -19.465  0.3969E+00  0.3331E+00
    -19.343  0.5865E+00  0.4051E+00
    -19.220  0.5307E+00  0.4703E+00
    -19.097  0.2634E-01  0.4735E+00
    -18.974 -0.3538E-01  0.4691E+00
    -18.852  0.6924E-02  0.4700E+00
    -18.729 -0.8812E-01  0.4592E+00
    -18.606  0.8248E-01  0.4693E+00
    -18.483  0.1161E+01  0.6118E+00
    -18.361  0.1221E+01  0.7617E+00
    -18.238  0.1178E+00  0.7762E+00
    -18.115 -0.1543E+00  0.7573E+00
    -17.992  0.1714E+00  0.7783E+00
    -17.870  0.7038E+00  0.8647E+00
    -17.747  0.4438E+00  0.9192E+00
    -17.624 -0.2134E-01  0.9166E+00
    -17.501 -0.2560E-01  0.9134E+00
    -17.379 -0.3578E-02  0.9130E+00
    -17.256 -0.5017E-01  0.9068E+00
    -17.133  0.2120E+00  0.9329E+00
    -17.010  0.6159E+00  0.1008E+01
    -16.888  0.5355E+00  0.1074E+01
    -16.765  0.1203E+01  0.1222E+01
    -16.642  0.1113E+01  0.1359E+01
    -16.519  0.7317E-01  0.1367E+01
    -16.397 -0.8216E-01  0.1357E+01
    -16.274 -0.5680E-02  0.1357E+01
    -16.151 -0.5175E-01  0.1350E+01
    -16.028  0.2370E+00  0.1379E+01
    -15.905  0.7222E+00  0.1468E+01
    -15.783  0.3676E+00  0.1513E+01
    -15.660 -0.3646E-01  0.1509E+01
    -15.537 -0.1607E-01  0.1507E+01
    -15.414 -0.7636E-01  0.1497E+01
    -15.292  0.4755E-01  0.1503E+01
    -15.169  0.1056E+01  0.1633E+01
    -15.046  0.1447E+01  0.1810E+01
    -14.923  0.8654E+00  0.1917E+01
    -14.801  0.3192E+00  0.1956E+01
    -14.678 -0.2817E-01  0.1952E+01
    -14.555 -0.2033E-01  0.1950E+01
    -14.432  0.9554E-02  0.1951E+01
    -14.310 -0.1936E-01  0.1949E+01
    -14.187 -0.4310E-01  0.1943E+01
    -14.064  0.3561E+00  0.1987E+01
    -13.941  0.7262E+00  0.2076E+01
    -13.819  0.2493E+00  0.2107E+01
    -13.696 -0.8388E-01  0.2097E+01
    -13.573  0.2001E-02  0.2097E+01
    -13.450  0.3815E+00  0.2144E+01
    -13.328  0.8106E+00  0.2243E+01
    -13.205  0.7371E+00  0.2334E+01
    -13.082  0.1661E+00  0.2354E+01
    -12.959 -0.1046E+00  0.2341E+01
    -12.836 -0.7741E-01  0.2332E+01
    -12.714  0.7845E+00  0.2428E+01
    -12.591  0.1434E+01  0.2604E+01
    -12.468  0.4313E+00  0.2657E+01
    -12.345 -0.1126E+00  0.2643E+01
    -12.223 -0.8573E-02  0.2642E+01
    -12.100 -0.2419E-01  0.2639E+01
    -11.977 -0.9835E-01  0.2627E+01
    -11.854  0.6082E+00  0.2702E+01
    -11.732  0.1442E+01  0.2879E+01
    -11.609  0.6993E+00  0.2965E+01
    -11.486  0.1382E+00  0.2982E+01
    -11.363  0.5888E-01  0.2989E+01
    -11.241 -0.9270E-02  0.2988E+01
    -11.118 -0.2071E-02  0.2987E+01
    -10.995  0.6081E-02  0.2988E+01
    -10.872  0.5571E-02  0.2989E+01
    -10.750 -0.8338E-01  0.2979E+01
    -10.627  0.5163E-01  0.2985E+01
    -10.504  0.1109E+01  0.3121E+01
    -10.381  0.1244E+01  0.3274E+01
    -10.259  0.5438E-01  0.3281E+01
    -10.136  0.3494E+00  0.3323E+01
    -10.013  0.1439E+01  0.3500E+01
     -9.890  0.7640E+00  0.3594E+01
     -9.768 -0.7663E-01  0.3584E+01
     -9.645 -0.4567E-01  0.3579E+01
     -9.522  0.1444E-01  0.3581E+01
     -9.399  0.1047E-01  0.3582E+01
     -9.276 -0.9271E-01  0.3571E+01
     -9.154  0.1191E-01  0.3572E+01
     -9.031  0.1341E+01  0.3737E+01
     -8.908  0.1975E+01  0.3979E+01
     -8.785  0.5202E+00  0.4043E+01
     -8.663 -0.8755E-01  0.4032E+01
     -8.540  0.7718E-01  0.4042E+01
     -8.417 -0.2895E-01  0.4038E+01
     -8.294  0.4602E+00  0.4095E+01
     -8.172  0.1301E+01  0.4254E+01
     -8.049  0.6960E+00  0.4340E+01
     -7.926  0.6573E+00  0.4421E+01
     -7.803  0.1344E+01  0.4586E+01
     -7.681  0.5082E+00  0.4648E+01
     -7.558  0.7551E+00  0.4741E+01
     -7.435  0.1255E+01  0.4895E+01
     -7.312  0.5103E+00  0.4957E+01
     -7.190  0.1016E+01  0.5082E+01
     -7.067  0.1427E+01  0.5257E+01
     -6.944  0.1448E+01  0.5435E+01
     -6.821  0.7913E+00  0.5532E+01
     -6.699  0.1089E+00  0.5545E+01
     -6.576  0.8141E+00  0.5645E+01
     -6.453  0.1068E+01  0.5776E+01
     -6.330  0.3892E+00  0.5824E+01
     -6.208  0.8511E+00  0.5929E+01
     -6.085  0.1370E+01  0.6097E+01
     -5.962  0.3486E+00  0.6140E+01
     -5.839 -0.1814E+00  0.6117E+01
     -5.716 -0.1216E+00  0.6102E+01
     -5.594  0.1133E+01  0.6241E+01
     -5.471  0.2148E+01  0.6505E+01
     -5.348  0.6980E+00  0.6591E+01
     -5.225 -0.1759E+00  0.6569E+01
     -5.103 -0.8613E-01  0.6559E+01
     -4.980  0.2541E+00  0.6590E+01
     -4.857  0.7116E+00  0.6677E+01
     -4.734  0.3280E+00  0.6717E+01
     -4.612  0.2006E+00  0.6742E+01
     -4.489  0.6482E+00  0.6822E+01
     -4.366  0.1440E+01  0.6998E+01
     -4.243  0.2004E+01  0.7244E+01
     -4.121  0.6856E+00  0.7329E+01
     -3.998 -0.1577E+00  0.7309E+01
     -3.875 -0.4600E-01  0.7304E+01
     -3.752  0.3047E+00  0.7341E+01
     -3.630  0.7961E+00  0.7439E+01
     -3.507  0.5672E+00  0.7508E+01
     -3.384  0.2267E-01  0.7511E+01
     -3.261 -0.4702E-01  0.7505E+01
     -3.139 -0.5028E-01  0.7499E+01
     -3.016  0.1744E+00  0.7521E+01
     -2.893  0.6244E+00  0.7597E+01
     -2.770  0.4460E+00  0.7652E+01
     -2.648  0.9794E+00  0.7772E+01
     -2.525  0.1308E+01  0.7933E+01
     -2.402  0.2501E+00  0.7964E+01
     -2.279 -0.1086E+00  0.7950E+01
     -2.156 -0.4679E-02  0.7950E+01
     -2.034  0.6715E-02  0.7951E+01
     -1.911  0.8243E-03  0.7951E+01
     -1.788  0.3165E-04  0.7951E+01
     -1.665  0.4978E-06  0.7951E+01
     -1.543  0.1941E-05  0.7951E+01
     -1.420  0.7647E-04  0.7951E+01
     -1.297  0.1082E-02  0.7951E+01
     -1.174  0.2798E-02  0.7951E+01
     -1.052 -0.2032E-01  0.7949E+01
     -0.929 -0.1306E-01  0.7947E+01
     -0.806  0.3006E+00  0.7984E+01
     -0.683  0.4634E+00  0.8041E+01
     -0.561  0.1086E+00  0.8054E+01
     -0.438 -0.3810E-01  0.8049E+01
     -0.315 -0.3327E-02  0.8049E+01
     -0.192  0.2470E-02  0.8049E+01
     -0.070  0.3427E-03  0.8049E+01
      0.053  0.1552E-04  0.8049E+01
      0.176  0.5999E-04  0.8049E+01
      0.299  0.1126E-02  0.8050E+01
      0.421  0.6281E-02  0.8050E+01
      0.544 -0.8978E-02  0.8049E+01
      0.667 -0.7668E-01  0.8040E+01
      0.790  0.2165E+00  0.8066E+01
      0.912  0.1292E+01  0.8225E+01
      1.035  0.1739E+01  0.8438E+01
      1.158  0.5760E+00  0.8509E+01
      1.281 -0.1682E+00  0.8488E+01
      1.404  0.2054E+00  0.8514E+01
      1.526  0.7320E+00  0.8604E+01
      1.649  0.3702E+00  0.8649E+01
      1.772 -0.4010E-01  0.8644E+01
      1.895 -0.2659E-01  0.8641E+01
      2.017  0.1375E-02  0.8641E+01
      2.140  0.8221E-01  0.8651E+01
      2.263  0.1082E+00  0.8664E+01
      2.386 -0.1257E+00  0.8649E+01
      2.508  0.3697E+00  0.8694E+01
      2.631  0.1962E+01  0.8935E+01
      2.754  0.1504E+01  0.9120E+01
      2.877  0.3048E-01  0.9124E+01
      2.999 -0.1339E+00  0.9107E+01
      3.122 -0.4674E-01  0.9101E+01
      3.245  0.4258E+00  0.9154E+01
      3.368  0.1168E+01  0.9297E+01
      3.490  0.8537E+00  0.9402E+01
      3.613  0.4135E-01  0.9407E+01
      3.736  0.2039E+00  0.9432E+01
      3.859  0.7703E+00  0.9526E+01
      3.981  0.4200E+00  0.9578E+01
      4.104 -0.5185E-01  0.9572E+01
      4.227  0.5137E+00  0.9635E+01
      4.350  0.1327E+01  0.9798E+01
      4.473  0.7150E+00  0.9885E+01
      4.595 -0.2286E-01  0.9883E+01
      4.718 -0.7671E-01  0.9873E+01
      4.841 -0.1117E+00  0.9859E+01
      4.964  0.5958E+00  0.9933E+01
      5.086  0.1814E+01  0.1016E+02
      5.209  0.1276E+01  0.1031E+02
      5.332 -0.1348E-01  0.1031E+02
      5.455  0.4083E+00  0.1036E+02
      5.577  0.2014E+01  0.1061E+02
      5.700  0.1409E+01  0.1078E+02
      5.823  0.5405E+00  0.1085E+02
      5.946  0.5111E+00  0.1091E+02
      6.068  0.6994E-01  0.1092E+02
      6.191 -0.4088E-01  0.1091E+02
      6.314  0.1071E-01  0.1091E+02
      6.437 -0.3134E-01  0.1091E+02
      6.559 -0.8936E-01  0.1090E+02
      6.682  0.6256E+00  0.1098E+02
      6.805  0.1367E+01  0.1114E+02
      6.928  0.9843E+00  0.1127E+02
      7.050  0.1204E+01  0.1141E+02
      7.173  0.9282E+00  0.1153E+02
      7.296  0.6475E+00  0.1161E+02
      7.419  0.1694E+01  0.1181E+02
      7.541  0.2507E+01  0.1212E+02
      7.664  0.1653E+01  0.1233E+02
      7.787  0.1079E+01  0.1246E+02
      7.910  0.8647E+00  0.1256E+02
      8.033  0.1875E+00  0.1259E+02
      8.155  0.2930E+00  0.1262E+02
      8.278  0.1775E+01  0.1284E+02
      8.401  0.2307E+01  0.1312E+02
      8.524  0.1406E+01  0.1330E+02
      8.646  0.1872E+01  0.1353E+02
      8.769  0.1794E+01  0.1375E+02
      8.892  0.3703E+00  0.1379E+02
      9.015  0.1407E+01  0.1396E+02
      9.137  0.1904E+01  0.1420E+02
      9.260  0.3431E+00  0.1424E+02
      9.383 -0.1415E+00  0.1422E+02
      9.506 -0.3543E-01  0.1422E+02
      9.628 -0.1036E+00  0.1421E+02
      9.751  0.5834E+00  0.1428E+02
      9.874  0.1611E+01  0.1448E+02
      9.997  0.7859E+00  0.1457E+02
     10.119 -0.1506E+00  0.1455E+02
     10.242  0.1019E+01  0.1468E+02
     10.365  0.2109E+01  0.1494E+02
     10.488  0.1019E+01  0.1506E+02
     10.610  0.5190E+00  0.1513E+02
     10.733  0.4904E+00  0.1519E+02
     10.856  0.6313E+00  0.1526E+02
     10.979  0.1071E+01  0.1540E+02
     11.101  0.1822E+01  0.1562E+02
     11.224  0.1151E+01  0.1576E+02
     11.347  0.9096E-02  0.1576E+02
     11.470 -0.8009E-01  0.1575E+02
     11.593  0.1099E-01  0.1575E+02
     11.715 -0.3578E-01  0.1575E+02
     11.838  0.2293E-01  0.1575E+02
     11.961  0.5403E+00  0.1582E+02
     12.084  0.6003E+00  0.1589E+02
     12.206  0.2118E+00  0.1592E+02
     12.329  0.4186E+00  0.1597E+02
     12.452  0.2826E+00  0.1600E+02
     12.575 -0.1535E-01  0.1600E+02
     12.697 -0.1813E-01  0.1600E+02
     12.820  0.2923E-02  0.1600E+02
     12.943  0.9898E-03  0.1600E+02
     13.066  0.6656E-04  0.1600E+02
     13.188  0.1620E-05  0.1600E+02
     13.311  0.1620E-07  0.1600E+02
     13.434  0.6999E-10  0.1600E+02
     13.557  0.1342E-12  0.1600E+02
     13.679  0.8932E-16  0.1600E+02
     13.802  0.0000E+00  0.1600E+02
     13.925  0.0000E+00  0.1600E+02
     14.048  0.0000E+00  0.1600E+02
     14.170  0.0000E+00  0.1600E+02
     14.293  0.0000E+00  0.1600E+02
