    2    2    1    1
  0.2580196E+02  0.2441046E-09  0.2441046E-09  0.1000000E-08  0.5000000E-15
   1.0000000000000000E-004
  CAR 
 Graphite surface slap                   
      8     12      8

  0.1262379E-14  0.1262379E-14  0.1262379E-14  0.1234568E-01
      1        -20.534453   1.000000
      2         -8.606711   1.000000
      3         -3.770634   1.000000
      4         -3.770592   1.000000
      5          2.176326   0.000000
      6          3.938005   0.000000
      7          7.754913   0.000000
      8          7.754941   0.000000

  0.1111111E+00  0.1262879E-14  0.1262379E-14  0.7407407E-01
      1        -20.237843   1.000000
      2         -8.249851   1.000000
      3         -4.905290   1.000000
      4         -4.365287   1.000000
      5          2.583093   0.000000
      6          4.339604   0.000000
      7          7.856000   0.000000
      8          8.996737   0.000000

  0.2222222E+00  0.1276756E-14  0.1262379E-14  0.7407407E-01
      1        -19.353826   1.000000
      2         -7.500689   1.000000
      3         -7.197741   1.000000
      4         -5.559954   1.000000
      5          3.802733   0.000000
      6          5.527774   0.000000
      7          7.461561   0.000000
      8          7.669899   0.000000

  0.3333333E+00  0.1249001E-14  0.1262379E-14  0.7407407E-01
      1        -17.902558   1.000000
      2        -10.485980   1.000000
      3         -6.612193   1.000000
      4         -5.531551   1.000000
      5          4.257559   0.000000
      6          5.825140   0.000000
      7          7.246454   0.000000
      8          7.561548   0.000000

  0.4444444E+00  0.1304512E-14  0.1262379E-14  0.7407407E-01
      1        -15.953531   1.000000
      2        -13.290415   1.000000
      3         -7.192541   1.000000
      4         -3.636699   1.000000
      5          1.478363   0.000000
      6          6.978574   0.000000
      7          8.659146   0.000000
      8         10.272673   0.000000

  0.1111111E+00  0.1111111E+00  0.1262379E-14  0.7407407E-01
      1        -19.647581   1.000000
      2         -7.544698   1.000000
      3         -6.483917   1.000000
      4         -5.550061   1.000000
      5          3.396958   0.000000
      6          5.138678   0.000000
      7          8.275545   0.000000
      8          8.490796   0.000000

  0.2222222E+00  0.1111111E+00  0.1262379E-14  0.1481481E+00
      1        -18.479893   1.000000
      2         -8.978369   1.000000
      3         -6.971539   1.000000
      4         -6.175658   1.000000
      5          5.021348   0.000000
      6          5.555871   0.000000
      7          6.739097   0.000000
      8          8.664884   0.000000

  0.3333333E+00  0.1111111E+00  0.1262379E-14  0.1481481E+00
      1        -16.770942   1.000000
      2        -11.794392   1.000000
      3         -7.872258   1.000000
      4         -4.300424   1.000000
      5          2.624490   0.000000
      6          7.436508   0.000000
      7          8.348094   0.000000
      8          9.045972   0.000000

  0.4444444E+00  0.1111111E+00  0.1262379E-14  0.7407407E-01
      1        -14.960794   1.000000
      2        -14.013790   1.000000
      3         -8.178967   1.000000
      4         -2.924831   1.000000
      5          0.846543   0.000000
      6          8.197813   0.000000
      7         10.550570   0.000000
      8         10.802585   0.000000

  0.2222222E+00  0.2222222E+00  0.1262379E-14  0.7407407E-01
      1        -17.052702   1.000000
      2        -10.501915   1.000000
      3         -9.046701   1.000000
      4         -4.553404   1.000000
      5          3.279490   0.000000
      6          7.041425   0.000000
      7         10.981018   0.000000
      8         11.972497   0.000000

  0.3333333E+00  0.2222222E+00  0.1262379E-14  0.1481481E+00
      1        -15.159898   1.000000
      2        -12.670249   1.000000
      3        -10.058751   1.000000
      4         -2.626144   1.000000
      5          0.977799   0.000000
      6          9.813829   0.000000
      7         10.300621   0.000000
      8         11.092296   0.000000

  0.3333333E+00  0.3333333E+00  0.1262379E-14  0.2469136E-01
      1        -13.453633   1.000000
      2        -13.453632   1.000000
      3        -11.554263   1.000000
      4         -0.774713   0.500000
      5         -0.774713   0.500000
      6          9.911741   0.000000
      7         12.291505   0.000000
      8         12.293219   0.000000
