Graphite surface slap                   
   1.0000000000000000     
     2.441046    0.000000    0.000000
    -1.220523    2.114008    0.000000
     0.000000    0.000000   10.000000
   C 
     2
Direct
  0.000000  0.000000  0.000000
  0.333333  0.666667  0.000000

   24   24  100
 -.12134474597E+03 -.11676503265E+03 -.10290935141E+03 -.82275281989E+02 -.56571355332E+02
 -.34115046736E+02 -.21175093141E+02 -.14268833788E+02 -.11402545222E+02 -.10796636658E+02
 -.11286241078E+02 -.11990305917E+02 -.12358370245E+02 -.12030945825E+02 -.11340832568E+02
 -.10809065009E+02 -.11379918272E+02 -.14269588967E+02 -.21207921739E+02 -.34115303833E+02
 -.56584906642E+02 -.82272816862E+02 -.10291189024E+03 -.11676431363E+03 -.11676431363E+03
 -.11668104190E+03 -.10746094741E+03 -.90306789392E+02 -.67067053613E+02 -.42279471851E+02
 -.25420564531E+02 -.15927633772E+02 -.10796636659E+02 -.86481736867E+01 -.79116758996E+01
 -.78526844758E+01 -.79387550680E+01 -.79432179844E+01 -.78056701980E+01 -.78835849442E+01
 -.86263864867E+01 -.10827488224E+02 -.15908685232E+02 -.25408865912E+02 -.42262168964E+02
 -.67064809688E+02 -.90306419678E+02 -.10744551553E+03 -.10291189023E+03 -.10740579416E+03
 -.10300434950E+03 -.90278862769E+02 -.70768411381E+02 -.47436285934E+02 -.28960019044E+02
 -.17942736087E+02 -.11286241080E+02 -.79116759002E+01 -.62017204115E+01 -.55629167653E+01
 -.53035300103E+01 -.53271070140E+01 -.53148930667E+01 -.55864975335E+01 -.62404598185E+01
 -.79122389736E+01 -.11279867543E+02 -.17937434943E+02 -.28990836366E+02 -.47436004539E+02
 -.70781755847E+02 -.90306419677E+02 -.82272816859E+02 -.90208227702E+02 -.90179668331E+02
 -.82159476928E+02 -.67147974939E+02 -.47435139973E+02 -.30463551271E+02 -.19277740512E+02
 -.11990305918E+02 -.78526844767E+01 -.55629167657E+01 -.43791175284E+01 -.37707228439E+01
 -.35931924323E+01 -.35668238604E+01 -.37862685435E+01 -.43330982322E+01 -.55573746515E+01
 -.78219514124E+01 -.12028590025E+02 -.19255240469E+02 -.30458452981E+02 -.47436004538E+02
 -.67064809686E+02 -.56584906638E+02 -.67020375550E+02 -.70697570447E+02 -.67102303583E+02
 -.56657173992E+02 -.42124060407E+02 -.29045840381E+02 -.19220330283E+02 -.12358370246E+02
 -.79387550689E+01 -.53035300109E+01 -.37707228441E+01 -.29046863914E+01 -.25285590611E+01
 -.23972003860E+01 -.25310706418E+01 -.29112503911E+01 -.37917921919E+01 -.53250944971E+01
 -.79535779404E+01 -.12322497253E+02 -.19255240468E+02 -.28990836365E+02 -.42262168960E+02
 -.34115303828E+02 -.42550133183E+02 -.47747481258E+02 -.47726909716E+02 -.42425425084E+02
 -.34171194213E+02 -.25485824730E+02 -.17886872449E+02 -.12030945826E+02 -.79432179850E+01
 -.53271070145E+01 -.35931924326E+01 -.25285590613E+01 -.19533388464E+01 -.17019087460E+01
 -.17035749947E+01 -.19504745155E+01 -.25205325372E+01 -.35805934752E+01 -.52982141308E+01
 -.79535779400E+01 -.12028590024E+02 -.17937434941E+02 -.25408865909E+02 -.21207921735E+02
 -.26329843652E+02 -.30263242363E+02 -.31780714757E+02 -.30339788596E+02 -.26367915369E+02
 -.21132743802E+02 -.15883354643E+02 -.11340832568E+02 -.78056701982E+01 -.53148930670E+01
 -.35668238608E+01 -.23972003863E+01 -.17019087462E+01 -.13314824223E+01 -.12172142852E+01
 -.13315282714E+01 -.17036382550E+01 -.24037186322E+01 -.35805934750E+01 -.53250944964E+01
 -.78219514111E+01 -.11279867541E+02 -.15908685229E+02 -.14269588964E+02 -.17899493958E+02
 -.20968817174E+02 -.22740513932E+02 -.22699370862E+02 -.20938979633E+02 -.17905173833E+02
 -.14317705850E+02 -.10809065008E+02 -.78835849439E+01 -.55864975337E+01 -.37862685439E+01
 -.25310706422E+01 -.17035749950E+01 -.12172142854E+01 -.99493137700E+00 -.99348635680E+00
 -.12175054344E+01 -.17036382548E+01 -.25205325368E+01 -.37917921911E+01 -.55573746502E+01
 -.79122389716E+01 -.10827488221E+02 -.11379918268E+02 -.14354522235E+02 -.17198278973E+02
 -.19288113425E+02 -.20081420265E+02 -.19288113426E+02 -.17198278975E+02 -.14354522237E+02
 -.11379918270E+02 -.86263864861E+01 -.62404598185E+01 -.43330982325E+01 -.29112503915E+01
 -.19504745160E+01 -.13315282718E+01 -.99348635700E+00 -.88787078984E+00 -.99348635670E+00
 -.13315282712E+01 -.19504745151E+01 -.29112503903E+01 -.43330982309E+01 -.62404598166E+01
 -.86263864841E+01 -.10809065006E+02 -.14317705848E+02 -.17905173831E+02 -.20938979631E+02
 -.22699370861E+02 -.22740513933E+02 -.20968817175E+02 -.17899493960E+02 -.14269588966E+02
 -.10827488223E+02 -.79122389736E+01 -.55573746519E+01 -.37917921925E+01 -.25205325379E+01
 -.17036382556E+01 -.12175054349E+01 -.99348635695E+00 -.99493137685E+00 -.12172142849E+01
 -.17035749942E+01 -.25310706411E+01 -.37862685424E+01 -.55864975319E+01 -.78835849419E+01
 -.11340832565E+02 -.15883354640E+02 -.21132743799E+02 -.26367915366E+02 -.30339788594E+02
 -.31780714756E+02 -.30263242364E+02 -.26329843654E+02 -.21207921737E+02 -.15908685232E+02
 -.11279867543E+02 -.78219514131E+01 -.53250944980E+01 -.35805934763E+01 -.24037186332E+01
 -.17036382556E+01 -.13315282717E+01 -.12172142852E+01 -.13314824220E+01 -.17019087456E+01
 -.23972003853E+01 -.35668238594E+01 -.53148930653E+01 -.78056701960E+01 -.12030945823E+02
 -.17886872445E+02 -.25485824726E+02 -.34171194209E+02 -.42425425080E+02 -.47726909714E+02
 -.47747481258E+02 -.42550133185E+02 -.34115303831E+02 -.25408865912E+02 -.17937434944E+02
 -.12028590026E+02 -.79535779420E+01 -.52982141324E+01 -.35805934764E+01 -.25205325380E+01
 -.19504745160E+01 -.17035749948E+01 -.17019087459E+01 -.19533388459E+01 -.25285590605E+01
 -.35931924314E+01 -.53271070128E+01 -.79432179828E+01 -.12358370243E+02 -.19220330279E+02
 -.29045840376E+02 -.42124060401E+02 -.56657173986E+02 -.67102303579E+02 -.70697570446E+02
 -.67020375551E+02 -.56584906642E+02 -.42262168965E+02 -.28990836369E+02 -.19255240471E+02
 -.12322497256E+02 -.79535779423E+01 -.53250944985E+01 -.37917921929E+01 -.29112503917E+01
 -.25310706421E+01 -.23972003860E+01 -.25285590608E+01 -.29046863908E+01 -.37707228431E+01
 -.53035300094E+01 -.79387550667E+01 -.11990305915E+02 -.19277740508E+02 -.30463551265E+02
 -.47435139965E+02 -.67147974931E+02 -.82159476923E+02 -.90179668328E+02 -.90208227702E+02
 -.82272816862E+02 -.67064809691E+02 -.47436004544E+02 -.30458452986E+02 -.19255240472E+02
 -.12028590028E+02 -.78219514141E+01 -.55573746527E+01 -.43330982329E+01 -.37862685440E+01
 -.35668238605E+01 -.35931924322E+01 -.37707228435E+01 -.43791175276E+01 -.55629167644E+01
 -.78526844747E+01 -.11286241077E+02 -.17942736083E+02 -.28960019038E+02 -.47436285925E+02
 -.70768411372E+02 -.90278862762E+02 -.10300434949E+03 -.10740579416E+03 -.10291189024E+03
 -.90306419682E+02 -.70781755854E+02 -.47436004546E+02 -.28990836371E+02 -.17937434947E+02
 -.11279867545E+02 -.79122389750E+01 -.62404598194E+01 -.55864975341E+01 -.53148930670E+01
 -.53271070140E+01 -.53035300102E+01 -.55629167648E+01 -.62017204106E+01 -.79116758986E+01
 -.10796636657E+02 -.15927633768E+02 -.25420564526E+02 -.42279471842E+02 -.67067053603E+02
 -.90306789384E+02 -.10746094740E+03 -.11668104190E+03 -.11676431363E+03 -.10744551554E+03
 -.90306419684E+02 -.67064809696E+02 -.42262168971E+02 -.25408865916E+02 -.15908685235E+02
 -.10827488226E+02 -.86263864878E+01 -.78835849449E+01 -.78056701984E+01 -.79432179846E+01
 -.79387550681E+01 -.78526844756E+01 -.79116758991E+01 -.86481736857E+01 -.11402545221E+02
 -.14268833785E+02 -.21175093137E+02 -.34115046729E+02 -.56571355322E+02 -.82275281980E+02
 -.10290935141E+03 -.11676503264E+03 -.12134474597E+03 -.11676431363E+03 -.10291189024E+03
 -.82272816869E+02 -.56584906650E+02 -.34115303838E+02 -.21207921743E+02 -.14269588969E+02
 -.11379918273E+02 -.10809065010E+02 -.11340832569E+02 -.12030945826E+02 -.12358370245E+02
 -.11990305917E+02 -.11286241079E+02 -.10796636658E+02 -.14268833786E+02 -.14366375447E+02
 -.17921617717E+02 -.26344231118E+02 -.42553650153E+02 -.67026378383E+02 -.90209974890E+02
 -.10739023153E+03 -.11676503264E+03 -.11668104190E+03 -.10740579417E+03 -.90208227710E+02
 -.67020375562E+02 -.42550133195E+02 -.26329843661E+02 -.17899493965E+02 -.14354522240E+02
 -.14317705853E+02 -.15883354644E+02 -.17886872449E+02 -.19220330282E+02 -.19277740510E+02
 -.17942736085E+02 -.15927633770E+02 -.21175093139E+02 -.17921617718E+02 -.17153824356E+02
 -.20972662738E+02 -.30245234530E+02 -.47744463628E+02 -.70695199569E+02 -.90209974891E+02
 -.10290935141E+03 -.10746094741E+03 -.10300434950E+03 -.90179668337E+02 -.70697570458E+02
 -.47747481270E+02 -.30263242372E+02 -.20968817182E+02 -.17198278980E+02 -.17905173836E+02
 -.21132743805E+02 -.25485824731E+02 -.29045840380E+02 -.30463551269E+02 -.28960019042E+02
 -.25420564529E+02 -.34115046733E+02 -.26344231121E+02 -.20972662740E+02 -.19299511513E+02
 -.22741719206E+02 -.31798833881E+02 -.47744463628E+02 -.67026378384E+02 -.82275281983E+02
 -.90306789388E+02 -.90278862768E+02 -.82159476932E+02 -.67102303590E+02 -.47726909726E+02
 -.31780714766E+02 -.22740513940E+02 -.19288113432E+02 -.20938979638E+02 -.26367915372E+02
 -.34171194215E+02 -.42124060407E+02 -.47435139971E+02 -.47436285931E+02 -.42279471847E+02
 -.56571355329E+02 -.42553650159E+02 -.30245234534E+02 -.22741719208E+02 -.20025039794E+02
 -.22741719206E+02 -.30245234530E+02 -.42553650154E+02 -.56571355324E+02 -.67067053606E+02
 -.70768411378E+02 -.67147974939E+02 -.56657173997E+02 -.42425425091E+02 -.30339788603E+02
 -.22699370869E+02 -.20081420271E+02 -.22699370867E+02 -.30339788601E+02 -.42425425087E+02
 -.56657173994E+02 -.67147974938E+02 -.70768411379E+02 -.67067053610E+02 -.82275281988E+02
 -.67026378391E+02 -.47744463635E+02 -.31798833886E+02 -.22741719208E+02 -.19299511513E+02
 -.20972662739E+02 -.26344231119E+02 -.34115046730E+02 -.42279471844E+02 -.47436285929E+02
 -.47435139971E+02 -.42124060409E+02 -.34171194217E+02 -.26367915374E+02 -.20938979638E+02
 -.19288113432E+02 -.22740513938E+02 -.31780714762E+02 -.47726909721E+02 -.67102303586E+02
 -.82159476930E+02 -.90278862768E+02 -.90306789391E+02 -.10290935141E+03 -.90209974898E+02
 -.70695199577E+02 -.47744463636E+02 -.30245234535E+02 -.20972662741E+02 -.17153824357E+02
 -.17921617718E+02 -.21175093138E+02 -.25420564527E+02 -.28960019041E+02 -.30463551269E+02
 -.29045840381E+02 -.25485824732E+02 -.21132743805E+02 -.17905173837E+02 -.17198278979E+02
 -.20968817180E+02 -.30263242369E+02 -.47747481264E+02 -.70697570452E+02 -.90179668334E+02
 -.10300434950E+03 -.10746094741E+03 -.11676503265E+03 -.10739023154E+03 -.90209974898E+02
 -.67026378392E+02 -.42553650161E+02 -.26344231123E+02 -.17921617720E+02 -.14366375448E+02
 -.14268833786E+02 -.15927633769E+02 -.17942736085E+02 -.19277740510E+02 -.19220330282E+02
 -.17886872449E+02 -.15883354644E+02 -.14317705853E+02 -.14354522239E+02 -.17899493963E+02
 -.26329843658E+02 -.42550133189E+02 -.67020375554E+02 -.90208227705E+02 -.10740579416E+03
 -.11668104190E+03 -.11694742748E+03 -.11247264312E+03 -.98758910944E+02 -.78460928764E+02
 -.53514326729E+02 -.32387928331E+02 -.20314421924E+02 -.13707848171E+02 -.11054994421E+02
 -.10409549613E+02 -.10880665042E+02 -.11522065927E+02 -.11902776067E+02 -.11550189330E+02
 -.10934644740E+02 -.10408895553E+02 -.11012924393E+02 -.13720662108E+02 -.20351401742E+02
 -.32390512575E+02 -.53525711243E+02 -.78457274912E+02 -.98761908492E+02 -.11247161482E+03
 -.11247161301E+03 -.11240054402E+03 -.10330627753E+03 -.86369419779E+02 -.63630355041E+02
 -.39975061820E+02 -.24317979191E+02 -.15288287651E+02 -.10409549613E+02 -.83497612323E+01
 -.76518950897E+01 -.75694045555E+01 -.76487108687E+01 -.76626217086E+01 -.75284230619E+01
 -.76250677742E+01 -.83337927735E+01 -.10460215293E+02 -.15260143835E+02 -.24299943642E+02
 -.39960462134E+02 -.63634977127E+02 -.86378470837E+02 -.10326236838E+03 -.98761904478E+02
 -.10325359962E+03 -.98828475402E+02 -.86308021737E+02 -.67227464654E+02 -.44819720890E+02
 -.27593500649E+02 -.17198797215E+02 -.10880665043E+02 -.76518950903E+01 -.59831913339E+01
 -.53833310249E+01 -.51195157430E+01 -.51486894063E+01 -.51247773878E+01 -.54018526371E+01
 -.60225977544E+01 -.76508877157E+01 -.10852820832E+02 -.17205570946E+02 -.27621981420E+02
 -.44821079936E+02 -.67205020762E+02 -.86378469243E+02 -.78457271679E+02 -.86277083354E+02
 -.86213587069E+02 -.78415831827E+02 -.63732718780E+02 -.44775518131E+02 -.29035498083E+02
 -.18452891115E+02 -.11522065928E+02 -.75694045564E+01 -.53833310253E+01 -.42145202203E+01
 -.36308020587E+01 -.34565972188E+01 -.34339325421E+01 -.36474440079E+01 -.41769587739E+01
 -.53692821400E+01 -.75467088026E+01 -.11567689212E+02 -.18439532643E+02 -.29012250003E+02
 -.44821083373E+02 -.63634978970E+02 -.53525711238E+02 -.63591537661E+02 -.67161308419E+02
 -.63696253438E+02 -.53501017823E+02 -.39859084704E+02 -.27689163738E+02 -.18398758909E+02
 -.11902776068E+02 -.76487108696E+01 -.51195157436E+01 -.36308020590E+01 -.27994682917E+01
 -.24246047967E+01 -.23001347751E+01 -.24278417479E+01 -.27996864994E+01 -.36526183834E+01
 -.51401134623E+01 -.76723700883E+01 -.11841700973E+02 -.18439531246E+02 -.27621985431E+02
 -.39960468558E+02 -.32390515317E+02 -.40239172369E+02 -.45127801460E+02 -.45065077555E+02
 -.40147695087E+02 -.32499513931E+02 -.24343985137E+02 -.17150271672E+02 -.11550189331E+02
 -.76626217091E+01 -.51486894068E+01 -.34565972191E+01 -.24246047968E+01 -.18643779739E+01
 -.16241398081E+01 -.16211438896E+01 -.18665051598E+01 -.24157516291E+01 -.34499213892E+01
 -.51098241389E+01 -.76723682085E+01 -.11567682817E+02 -.17205567989E+02 -.24299948187E+02
 -.20351405019E+02 -.25198488545E+02 -.28870771388E+02 -.30316924688E+02 -.28962189374E+02
 -.25204585471E+02 -.20245344158E+02 -.15262280102E+02 -.10934644740E+02 -.75284230621E+01
 -.51247773881E+01 -.34339325424E+01 -.23001347754E+01 -.16241398083E+01 -.12593847575E+01
 -.11517380725E+01 -.12593161805E+01 -.16258850276E+01 -.23022712069E+01 -.34499243439E+01
 -.51401167422E+01 -.75467053631E+01 -.10852813536E+02 -.15260142239E+02 -.13720664108E+02
 -.17190951328E+02 -.20132079257E+02 -.21797456982E+02 -.21757456728E+02 -.20096397589E+02
 -.17220410191E+02 -.13781181140E+02 -.10408895552E+02 -.76250677739E+01 -.54018526372E+01
 -.36474440082E+01 -.24278417482E+01 -.16211438899E+01 -.11517380726E+01 -.93098687718E+00
 -.93349262366E+00 -.11479434295E+01 -.16258832314E+01 -.24157527876E+01 -.36526250131E+01
 -.53692873731E+01 -.76508859177E+01 -.10460211901E+02 -.11012924389E+02 -.13846473330E+02
 -.16543253000E+02 -.18548780958E+02 -.19309551330E+02 -.18548778123E+02 -.16543247548E+02
 -.13846468988E+02 -.11012924391E+02 -.83337927729E+01 -.60225977544E+01 -.41769587742E+01
 -.27996864999E+01 -.18665051602E+01 -.12593161809E+01 -.93349262386E+00 -.82689807884E+00
 -.93349308390E+00 -.12593128997E+01 -.18664999480E+01 -.27996864986E+01 -.41769644674E+01
 -.60226017655E+01 -.83337921072E+01 -.10408893546E+02 -.13781180846E+02 -.17220411985E+02
 -.20096400883E+02 -.21757462759E+02 -.21797463871E+02 -.20132081054E+02 -.17190947446E+02
 -.13720662106E+02 -.10460215292E+02 -.76508877157E+01 -.53692821404E+01 -.36526183840E+01
 -.24157516297E+01 -.16258850282E+01 -.11479434300E+01 -.93349308414E+00 -.93099046916E+00
 -.11517398683E+01 -.16211391381E+01 -.24278351167E+01 -.36474423646E+01 -.54018544315E+01
 -.76250675684E+01 -.10934641456E+02 -.15262278012E+02 -.20245341982E+02 -.25204580376E+02
 -.28962186092E+02 -.30316929779E+02 -.28870780122E+02 -.25198490634E+02 -.20351401740E+02
 -.15260143834E+02 -.10852820832E+02 -.75467088033E+01 -.51401134633E+01 -.34499213902E+01
 -.23022712078E+01 -.16258832322E+01 -.12593129003E+01 -.11517398685E+01 -.12593913183E+01
 -.16241427626E+01 -.23001314939E+01 -.34339291028E+01 -.51247766541E+01 -.75284214673E+01
 -.11550186581E+02 -.17150270801E+02 -.24343988088E+02 -.32499511790E+02 -.40147684301E+02
 -.45065069506E+02 -.45127804415E+02 -.40239177413E+02 -.32390512573E+02 -.24299943642E+02
 -.17205570947E+02 -.11567689213E+02 -.76723700897E+01 -.51098241404E+01 -.34499243452E+01
 -.24157527887E+01 -.18664999489E+01 -.16211391388E+01 -.16241427629E+01 -.18643838833E+01
 -.24246066754E+01 -.34565977013E+01 -.51486923602E+01 -.76626230692E+01 -.11902776065E+02
 -.18398756159E+02 -.27689169186E+02 -.39859094624E+02 -.53501017817E+02 -.63696243508E+02
 -.67161302965E+02 -.63591540409E+02 -.53525711242E+02 -.39960462136E+02 -.27621981422E+02
 -.18439532646E+02 -.11841700975E+02 -.76723682107E+01 -.51401167442E+01 -.36526250148E+01
 -.27996865000E+01 -.24278351178E+01 -.23001314946E+01 -.24246066757E+01 -.27994682911E+01
 -.36308006619E+01 -.51195197550E+01 -.76487172944E+01 -.11522069156E+02 -.18452885586E+02
 -.29035494639E+02 -.44775526654E+02 -.63732730039E+02 -.78415833476E+02 -.86213583627E+02
 -.86277084705E+02 -.78457274912E+02 -.63634977130E+02 -.44821079940E+02 -.29012250008E+02
 -.18439531250E+02 -.11567682821E+02 -.75467053660E+01 -.53692873755E+01 -.41769644694E+01
 -.36474423661E+01 -.34339291039E+01 -.34565977020E+01 -.36308006623E+01 -.42145133430E+01
 -.53833275858E+01 -.75694095854E+01 -.10880669054E+02 -.17198795124E+02 -.27593491177E+02
 -.44819715789E+02 -.67227468658E+02 -.86308026823E+02 -.98828476838E+02 -.10325360170E+03
 -.98761908492E+02 -.86378470840E+02 -.67205020769E+02 -.44821083381E+02 -.27621985437E+02
 -.17205567994E+02 -.10852813540E+02 -.76508859210E+01 -.60226017682E+01 -.54018544337E+01
 -.51247766558E+01 -.51486923614E+01 -.51195197558E+01 -.53833275862E+01 -.59831833073E+01
 -.76518934961E+01 -.10409551412E+02 -.15288291328E+02 -.24317977594E+02 -.39975055128E+02
 -.63630348796E+02 -.86369416272E+02 -.10330627593E+03 -.11240054452E+03 -.11247161481E+03
 -.10326236838E+03 -.86378469249E+02 -.63634978980E+02 -.39960468568E+02 -.24299948194E+02
 -.15260142245E+02 -.10460211905E+02 -.83337921108E+01 -.76250675714E+01 -.75284214696E+01
 -.76626230710E+01 -.76487172958E+01 -.75694095863E+01 -.76518934966E+01 -.83497580460E+01
 -.11054994420E+02 -.13707850048E+02 -.20314427373E+02 -.32387933625E+02 -.53514326720E+02
 -.78460923455E+02 -.98758905484E+02 -.11247264123E+03 -.11694742748E+03 -.11247161302E+03
 -.98761904484E+02 -.78457271688E+02 -.53525711250E+02 -.32390515327E+02 -.20351405026E+02
 -.13720664114E+02 -.11012924394E+02 -.10408893550E+02 -.10934641460E+02 -.11550186583E+02
 -.11902776067E+02 -.11522069157E+02 -.10880669055E+02 -.10409551413E+02 -.13707850049E+02
 -.13876586861E+02 -.17216170921E+02 -.25214083865E+02 -.40245248770E+02 -.63599980444E+02
 -.86288269486E+02 -.10320907998E+03 -.11247264311E+03 -.11240054402E+03 -.10325359962E+03
 -.86277083363E+02 -.63591537673E+02 -.40239172380E+02 -.25198488554E+02 -.17190951335E+02
 -.13846473336E+02 -.13781180851E+02 -.15262278016E+02 -.17150270805E+02 -.18398756162E+02
 -.18452885588E+02 -.17198795126E+02 -.15288291329E+02 -.20314427375E+02 -.17216170922E+02
 -.16491805979E+02 -.20138330317E+02 -.28846561281E+02 -.45128407816E+02 -.67125282118E+02
 -.86288271574E+02 -.98758910939E+02 -.10330627752E+03 -.98828475404E+02 -.86213587075E+02
 -.67161308429E+02 -.45127801472E+02 -.28870771397E+02 -.20132079264E+02 -.16543253006E+02
 -.17220411990E+02 -.20245341988E+02 -.24343988093E+02 -.27689169190E+02 -.29035494642E+02
 -.27593491180E+02 -.24317977596E+02 -.32387933629E+02 -.25214083868E+02 -.20138330318E+02
 -.18554408482E+02 -.21811915444E+02 -.30318132096E+02 -.45128402725E+02 -.63599977440E+02
 -.78460928757E+02 -.86369419775E+02 -.86308021737E+02 -.78415831831E+02 -.63696253446E+02
 -.45065077564E+02 -.30316924696E+02 -.21797456990E+02 -.18548780964E+02 -.20096400890E+02
 -.25204580383E+02 -.32499511796E+02 -.39859094630E+02 -.44775526659E+02 -.44819715795E+02
 -.39975055132E+02 -.53514326726E+02 -.40245248775E+02 -.28846561285E+02 -.21811915446E+02
 -.19238106479E+02 -.21811918180E+02 -.28846555828E+02 -.40245238855E+02 -.53514326722E+02
 -.63630355035E+02 -.67227464651E+02 -.63732718781E+02 -.53501017827E+02 -.40147695094E+02
 -.28962189381E+02 -.21757456735E+02 -.19309551336E+02 -.21757462766E+02 -.28962186098E+02
 -.40147684307E+02 -.53501017824E+02 -.63732730046E+02 -.67227468665E+02 -.63630348802E+02
 -.78460923462E+02 -.63599980452E+02 -.45128407823E+02 -.30318132101E+02 -.21811918182E+02
 -.18554418666E+02 -.20138335409E+02 -.25214076686E+02 -.32387928326E+02 -.39975061814E+02
 -.44819720885E+02 -.44775518129E+02 -.39859084705E+02 -.32499513935E+02 -.25204585476E+02
 -.20096397594E+02 -.18548778128E+02 -.21797463876E+02 -.30316929785E+02 -.45065069512E+02
 -.63696243515E+02 -.78415833482E+02 -.86308026829E+02 -.86369416278E+02 -.98758905490E+02
 -.86288269494E+02 -.67125282127E+02 -.45128402732E+02 -.28846555833E+02 -.20138335411E+02
 -.16491816886E+02 -.17216173009E+02 -.20314421921E+02 -.24317979188E+02 -.27593500645E+02
 -.29035498080E+02 -.27689163737E+02 -.24343985138E+02 -.20245344161E+02 -.17220410194E+02
 -.16543247552E+02 -.20132081058E+02 -.28870780127E+02 -.45127804421E+02 -.67161302970E+02
 -.86213583633E+02 -.98828476843E+02 -.10330627593E+03 -.11247264124E+03 -.10320907999E+03
 -.86288271582E+02 -.63599977449E+02 -.40245238862E+02 -.25214076690E+02 -.17216173011E+02
 -.13876591037E+02 -.13707848169E+02 -.15288287649E+02 -.17198797213E+02 -.18452891113E+02
 -.18398758908E+02 -.17150271673E+02 -.15262280104E+02 -.13781181142E+02 -.13846468991E+02
 -.17190947449E+02 -.25198490638E+02 -.40239177416E+02 -.63591540412E+02 -.86277084708E+02
 -.10325360171E+03 -.11240054452E+03 -.10395903139E+03 -.99429258574E+02 -.86882985727E+02
 -.67670334373E+02 -.45093790645E+02 -.27975633797E+02 -.17944258749E+02 -.12238108294E+02
 -.99976405980E+01 -.93682080353E+01 -.97732066984E+01 -.10271547756E+02 -.10592111648E+02
 -.10264615468E+02 -.97731965556E+01 -.93387033128E+01 -.99494577033E+01 -.12262031264E+02
 -.17947401906E+02 -.27975911305E+02 -.45095570108E+02 -.67669034041E+02 -.86883671148E+02
 -.99428936657E+02 -.99428933053E+02 -.99496413230E+02 -.91015891012E+02 -.75265203163E+02
 -.53856149590E+02 -.33990692650E+02 -.21300497688E+02 -.13527300361E+02 -.93682080361E+01
 -.75117632189E+01 -.68780111822E+01 -.67671319357E+01 -.68673513083E+01 -.68677185032E+01
 -.67718325337E+01 -.68809754812E+01 -.75298341258E+01 -.94123528262E+01 -.13511428876E+02
 -.21294281731E+02 -.33999123268E+02 -.53847461145E+02 -.75302227665E+02 -.90968194092E+02
 -.86883664381E+02 -.90971789879E+02 -.86773356945E+02 -.75272767143E+02 -.57119080537E+02
 -.37888733270E+02 -.24077930574E+02 -.15129725534E+02 -.97732066997E+01 -.68780111827E+01
 -.54502277667E+01 -.48361927922E+01 -.46265696814E+01 -.45998626099E+01 -.46267361682E+01
 -.48318305398E+01 -.54466814334E+01 -.68713337256E+01 -.97242126127E+01 -.15149787274E+02
 -.24065577143E+02 -.37903518146E+02 -.57068533388E+02 -.75302225234E+02 -.67669029258E+02
 -.75186463767E+02 -.75192458444E+02 -.67798861658E+02 -.53844484203E+02 -.37850338562E+02
 -.25212859114E+02 -.16197152744E+02 -.10271547757E+02 -.67671319365E+01 -.48361927925E+01
 -.37290009096E+01 -.32507428101E+01 -.30561752184E+01 -.30645303274E+01 -.32417486668E+01
 -.37433775123E+01 -.48249213918E+01 -.67843875295E+01 -.10298321105E+02 -.16212751303E+02
 -.25188304523E+02 -.37903524100E+02 -.53847464668E+02 -.45095570104E+02 -.53838716909E+02
 -.57068211145E+02 -.53828349978E+02 -.44954477055E+02 -.34051547180E+02 -.24083682641E+02
 -.16206047332E+02 -.10592111649E+02 -.68673513091E+01 -.46265696819E+01 -.32507428104E+01
 -.24840735817E+01 -.21304363117E+01 -.20204114578E+01 -.21309668327E+01 -.24825817859E+01
 -.32498509244E+01 -.46243060963E+01 -.68734357097E+01 -.10541749143E+02 -.16212748801E+02
 -.24065583907E+02 -.33999134151E+02 -.27975915308E+02 -.34246548302E+02 -.38176367414E+02
 -.38141843370E+02 -.34303776514E+02 -.28063921354E+02 -.21253193107E+02 -.15128260522E+02
 -.10264615468E+02 -.68677185037E+01 -.45998626104E+01 -.30561752187E+01 -.21304363118E+01
 -.16117338434E+01 -.13954111123E+01 -.13884458084E+01 -.16192371635E+01 -.21225808187E+01
 -.30665950653E+01 -.45887975495E+01 -.68734324336E+01 -.10298309969E+02 -.15149782091E+02
 -.21294289339E+02 -.17947407636E+02 -.22141305782E+02 -.25236509596E+02 -.26437126523E+02
 -.25240207078E+02 -.22102865062E+02 -.17873004507E+02 -.13564639332E+02 -.97731965553E+01
 -.67718325339E+01 -.46267361685E+01 -.30645303278E+01 -.20204114581E+01 -.13954111124E+01
 -.10554874466E+01 -.95825245585E+00 -.10547093699E+01 -.13964258881E+01 -.20186155248E+01
 -.30666002459E+01 -.46243118287E+01 -.67843815739E+01 -.97242001124E+01 -.13511426444E+02
 -.12262035552E+02 -.15260275004E+02 -.17799279346E+02 -.19230815157E+02 -.19247343575E+02
 -.17785452092E+02 -.15301803852E+02 -.12297568763E+02 -.93387033118E+01 -.68809754809E+01
 -.48318305400E+01 -.32417486671E+01 -.21309668330E+01 -.13884458087E+01 -.95825245600E+00
 -.74901818676E+00 -.75678966577E+00 -.95046122665E+00 -.13964227710E+01 -.21225828823E+01
 -.32498624971E+01 -.48249304620E+01 -.68713306069E+01 -.94123472775E+01 -.99494577000E+01
 -.12445350482E+02 -.14793529700E+02 -.16535346396E+02 -.17153488499E+02 -.16535340256E+02
 -.14793518753E+02 -.12445342135E+02 -.99494577019E+01 -.75298341252E+01 -.54466814334E+01
 -.37433775126E+01 -.24825817864E+01 -.16192371639E+01 -.10547093702E+01 -.75678966596E+00
 -.65245772293E+00 -.75679044772E+00 -.10547036366E+01 -.16192280833E+01 -.24825817852E+01
 -.37433873646E+01 -.54466881971E+01 -.75298326537E+01 -.93386990183E+01 -.12297567427E+02
 -.15301806967E+02 -.17785459013E+02 -.19247355820E+02 -.19230828313E+02 -.17799282464E+02
 -.15260267439E+02 -.12262031262E+02 -.94123528255E+01 -.68713337255E+01 -.48249213921E+01
 -.32498509250E+01 -.21225808193E+01 -.13964258886E+01 -.95046122707E+00 -.75679044795E+00
 -.74902442037E+00 -.95825557246E+00 -.13884375102E+01 -.21309552585E+01 -.32417458281E+01
 -.48318336552E+01 -.68809747914E+01 -.97731908199E+01 -.13564634879E+02 -.17872999288E+02
 -.22102855020E+02 -.25240201343E+02 -.26437136562E+02 -.25236526278E+02 -.22141310233E+02
 -.17947401905E+02 -.13511428876E+02 -.97242126128E+01 -.67843875301E+01 -.46243060971E+01
 -.30665950663E+01 -.20186155256E+01 -.13964227717E+01 -.10547036371E+01 -.95825557273E+00
 -.10554989124E+01 -.13954162927E+01 -.20204057242E+01 -.30645243720E+01 -.46267351345E+01
 -.67718301026E+01 -.10264611459E+02 -.15128259788E+02 -.21253198285E+02 -.28063916492E+02
 -.34303755966E+02 -.38141828148E+02 -.38176372594E+02 -.34246557935E+02 -.27975911304E+02
 -.21294281731E+02 -.15149787274E+02 -.10298321106E+02 -.68734357111E+01 -.45887975508E+01
 -.30666002472E+01 -.21225828834E+01 -.16192280842E+01 -.13884375108E+01 -.13954162930E+01
 -.16117442046E+01 -.21304395868E+01 -.30561759912E+01 -.45998677897E+01 -.68677212533E+01
 -.10592111646E+02 -.16206043322E+02 -.24083693585E+02 -.34051565671E+02 -.44954477050E+02
 -.53828331478E+02 -.57068200196E+02 -.53838720916E+02 -.45095570107E+02 -.33999123269E+02
 -.24065577145E+02 -.16212751306E+02 -.10541749146E+02 -.68734324357E+01 -.46243118305E+01
 -.32498624987E+01 -.24825817865E+01 -.21309552595E+01 -.20204057249E+01 -.21304395871E+01
 -.24840735811E+01 -.32507403074E+01 -.46265764459E+01 -.68673621930E+01 -.10271552535E+02
 -.16197142336E+02 -.25212853155E+02 -.37850354550E+02 -.53844505514E+02 -.67798865738E+02
 -.75192452487E+02 -.75186465271E+02 -.67669034040E+02 -.53847461148E+02 -.37903518150E+02
 -.25188304527E+02 -.16212748804E+02 -.10298309972E+02 -.67843815765E+01 -.48249304642E+01
 -.37433873665E+01 -.32417458296E+01 -.30645243731E+01 -.30561759919E+01 -.32507403077E+01
 -.37289889999E+01 -.48361868368E+01 -.67671403185E+01 -.97732134629E+01 -.15129721080E+02
 -.24077912855E+02 -.37888723224E+02 -.57119087294E+02 -.75272777176E+02 -.86773361124E+02
 -.90971794328E+02 -.86883671147E+02 -.75302227668E+02 -.57068533394E+02 -.37903524106E+02
 -.24065583913E+02 -.15149782096E+02 -.97242001161E+01 -.68713306099E+01 -.54466881996E+01
 -.48318336573E+01 -.46267351361E+01 -.45998677908E+01 -.46265764467E+01 -.48361868372E+01
 -.54502142351E+01 -.68780087520E+01 -.93682116383E+01 -.13527307238E+02 -.21300495254E+02
 -.33990680174E+02 -.53856136647E+02 -.75265195545E+02 -.91015888578E+02 -.99496415248E+02
 -.99428936657E+02 -.90968194095E+02 -.75302225241E+02 -.53847464677E+02 -.33999134159E+02
 -.21294289345E+02 -.13511426449E+02 -.94123472815E+01 -.75298326571E+01 -.68809747941E+01
 -.67718301049E+01 -.68677212550E+01 -.68673621943E+01 -.67671403194E+01 -.68780087525E+01
 -.75117583594E+01 -.99976405970E+01 -.12238111568E+02 -.17944269694E+02 -.27975645006E+02
 -.45093790636E+02 -.67670323150E+02 -.86882974771E+02 -.99429255293E+02 -.10395903139E+03
 -.99428933055E+02 -.86883664386E+02 -.67669029267E+02 -.45095570114E+02 -.27975915316E+02
 -.17947407642E+02 -.12262035557E+02 -.99494577042E+01 -.93386990219E+01 -.97731908230E+01
 -.10264611461E+02 -.10592111648E+02 -.10271552536E+02 -.97732134639E+01 -.93682116388E+01
 -.12238111568E+02 -.12479045364E+02 -.15264993919E+02 -.22139352941E+02 -.34257702906E+02
 -.53829458205E+02 -.75223667630E+02 -.90923463325E+02 -.99429258570E+02 -.99496413230E+02
 -.90971789883E+02 -.75186463775E+02 -.53838716919E+02 -.34246548311E+02 -.22141305789E+02
 -.15260275010E+02 -.12445350487E+02 -.12297567432E+02 -.13564634883E+02 -.15128259792E+02
 -.16206043325E+02 -.16197142338E+02 -.15129721082E+02 -.13527307239E+02 -.17944269696E+02
 -.15264993920E+02 -.14780217587E+02 -.17808973183E+02 -.25216381545E+02 -.38195159974E+02
 -.57015081368E+02 -.75223672081E+02 -.86882985722E+02 -.91015891011E+02 -.86773356947E+02
 -.75192458450E+02 -.57068211155E+02 -.38176367423E+02 -.25236509603E+02 -.17799279353E+02
 -.14793529706E+02 -.15301806972E+02 -.17872999293E+02 -.21253198289E+02 -.24083693589E+02
 -.25212853158E+02 -.24077912858E+02 -.21300495256E+02 -.27975645009E+02 -.22139352944E+02
 -.17808973184E+02 -.16518134002E+02 -.19258487155E+02 -.26411250464E+02 -.38195149935E+02
 -.53829452617E+02 -.67670334366E+02 -.75265203159E+02 -.75272767142E+02 -.67798861662E+02
 -.53828349985E+02 -.38141843378E+02 -.26437126530E+02 -.19230815163E+02 -.16535346402E+02
 -.17785459018E+02 -.22102855025E+02 -.28063916497E+02 -.34051565677E+02 -.37850354555E+02