       N       E                     dE             d eps       ncg     rms          rms(c)
DAV:   1     0.407377247143E+02    0.40738E+02   -0.29759E+03   192   0.644E+02
DAV:   2    -0.181848924548E+02   -0.58923E+02   -0.54416E+02   288   0.284E+02
DAV:   3    -0.197817971073E+02   -0.15969E+01   -0.15956E+01   256   0.362E+01
DAV:   4    -0.197965520751E+02   -0.14755E-01   -0.14755E-01   320   0.377E+00
DAV:   5    -0.197965926750E+02   -0.40600E-04   -0.40600E-04   280   0.164E-01    0.183E+01
RMM:   6    -0.187622690057E+02    0.10343E+01   -0.54247E-01   241   0.117E+01    0.132E+01
RMM:   7    -0.185054308189E+02    0.25684E+00   -0.35948E+00   313   0.184E+01    0.228E+00
RMM:   8    -0.183848142085E+02    0.12062E+00   -0.14821E-01   229   0.563E+00    0.137E+00
RMM:   9    -0.183708180573E+02    0.13996E-01   -0.10552E-01   245   0.262E+00    0.271E-01
RMM:  10    -0.183707621930E+02    0.55864E-04   -0.87256E-03   257   0.147E+00    0.331E-01
RMM:  11    -0.183705812716E+02    0.18092E-03   -0.39625E-03   259   0.997E-01    0.446E-01
RMM:  12    -0.183707737759E+02   -0.19250E-03   -0.52211E-03   266   0.136E+00    0.213E-01
RMM:  13    -0.183707470666E+02    0.26709E-04   -0.70131E-04   249   0.388E-01
   1 F= -.18370747E+02 E0= -.18370225E+02  d E =-.208959E-02
