Graphite surface slap                   
           1
     2.441046    0.000000    0.000000
    -1.220523    2.114008    0.000000
     0.000000    0.000000   10.000000
   C 
     2
Direct configuration=     1
   0.00000000  0.00000000  0.00000000
   0.33333333  0.66666667  0.00000000
