   2   2   0   0
  0.1200000E+02  0.2000000E-09  0.3000000E-09  0.4000000E-09  0.5000000E-15
  1.000000000000000E-004
  CAR 
 unknown system                          
     22.90397246    -27.38729528  301      1.38740005      1.00000000
    -27.387  0.0000E+00  0.0000E+00  0.0000E+00  0.0000E+00
    -27.220  0.0000E+00  0.0000E+00  0.0000E+00  0.0000E+00
    -27.052  0.0000E+00  0.0000E+00  0.0000E+00  0.0000E+00
    -26.884  0.0000E+00  0.0000E+00  0.0000E+00  0.0000E+00
    -26.717  0.0000E+00  0.0000E+00  0.0000E+00  0.0000E+00
    -26.549  0.0000E+00  0.0000E+00  0.0000E+00  0.0000E+00
    -26.381  0.0000E+00  0.0000E+00  0.0000E+00  0.0000E+00
    -26.214  0.0000E+00  0.0000E+00  0.0000E+00  0.0000E+00
    -26.046 -0.2684E-40  0.0000E+00 -0.4499E-41  0.0000E+00
    -25.879 -0.7612E-28  0.0000E+00 -0.1276E-28  0.0000E+00
    -25.711 -0.7458E-18  0.0000E+00 -0.1250E-18  0.0000E+00
    -25.543 -0.2325E-10 -0.2934E-38 -0.3897E-11 -0.4918E-39
    -25.376 -0.2178E-05 -0.3539E-26 -0.3651E-06 -0.5932E-27
    -25.208 -0.1812E-03 -0.1436E-16 -0.3074E-04 -0.2408E-17
    -25.040  0.5697E-02 -0.1915E-09  0.9243E-03 -0.3210E-10
    -24.873  0.4688E-03 -0.7224E-05  0.1003E-02 -0.1211E-05
    -24.705 -0.1703E-04  0.4639E-04  0.1000E-02  0.6566E-05
    -24.537 -0.9501E-09  0.5952E-02  0.1000E-02  0.1004E-02
    -24.370 -0.1431E-15 -0.2058E-04  0.1000E-02  0.1001E-02
    -24.202  0.0000E+00 -0.5787E-05  0.1000E-02  0.1000E-02
    -24.035  0.0000E+00 -0.1284E-09  0.1000E-02  0.1000E-02
    -23.867  0.0000E+00 -0.7947E-17  0.1000E-02  0.1000E-02
    -23.699  0.0000E+00  0.0000E+00  0.1000E-02  0.1000E-02
    -23.532  0.0000E+00  0.0000E+00  0.1000E-02  0.1000E-02
    -23.364  0.0000E+00  0.0000E+00  0.1000E-02  0.1000E-02
    -23.196  0.0000E+00  0.0000E+00  0.1000E-02  0.1000E-02
    -23.029  0.0000E+00  0.0000E+00  0.1000E-02  0.1000E-02
    -22.861  0.0000E+00  0.0000E+00  0.1000E-02  0.1000E-02
    -22.693  0.0000E+00  0.0000E+00  0.1000E-02  0.1000E-02
    -22.526  0.0000E+00  0.0000E+00  0.1000E-02  0.1000E-02
    -22.358  0.0000E+00  0.0000E+00  0.1000E-02  0.1000E-02
    -22.191  0.0000E+00  0.0000E+00  0.1000E-02  0.1000E-02
    -22.023  0.0000E+00  0.0000E+00  0.1000E-02  0.1000E-02
    -21.855  0.0000E+00  0.0000E+00  0.1000E-02  0.1000E-02
    -21.688  0.0000E+00  0.0000E+00  0.1000E-02  0.1000E-02
    -21.520  0.0000E+00  0.0000E+00  0.1000E-02  0.1000E-02
    -21.352  0.0000E+00  0.0000E+00  0.1000E-02  0.1000E-02
    -21.185  0.0000E+00  0.0000E+00  0.1000E-02  0.1000E-02
    -21.017  0.0000E+00  0.0000E+00  0.1000E-02  0.1000E-02
    -20.849  0.0000E+00  0.0000E+00  0.1000E-02  0.1000E-02
    -20.682  0.0000E+00  0.0000E+00  0.1000E-02  0.1000E-02
    -20.514  0.0000E+00  0.0000E+00  0.1000E-02  0.1000E-02
    -20.347  0.0000E+00  0.0000E+00  0.1000E-02  0.1000E-02
    -20.179  0.0000E+00  0.0000E+00  0.1000E-02  0.1000E-02
    -20.011  0.0000E+00  0.0000E+00  0.1000E-02  0.1000E-02
    -19.844  0.0000E+00  0.0000E+00  0.1000E-02  0.1000E-02
    -19.676  0.0000E+00  0.0000E+00  0.1000E-02  0.1000E-02
    -19.508  0.0000E+00  0.0000E+00  0.1000E-02  0.1000E-02
    -19.341  0.0000E+00  0.0000E+00  0.1000E-02  0.1000E-02
    -19.173  0.0000E+00  0.0000E+00  0.1000E-02  0.1000E-02
    -19.005  0.0000E+00  0.0000E+00  0.1000E-02  0.1000E-02
    -18.838  0.0000E+00  0.0000E+00  0.1000E-02  0.1000E-02
    -18.670  0.0000E+00  0.0000E+00  0.1000E-02  0.1000E-02
    -18.503  0.0000E+00  0.0000E+00  0.1000E-02  0.1000E-02
    -18.335  0.0000E+00  0.0000E+00  0.1000E-02  0.1000E-02
    -18.167  0.0000E+00  0.0000E+00  0.1000E-02  0.1000E-02
    -18.000  0.0000E+00  0.0000E+00  0.1000E-02  0.1000E-02
    -17.832  0.0000E+00  0.0000E+00  0.1000E-02  0.1000E-02
    -17.664  0.0000E+00  0.0000E+00  0.1000E-02  0.1000E-02
    -17.497  0.0000E+00  0.0000E+00  0.1000E-02  0.1000E-02
    -17.329  0.0000E+00  0.0000E+00  0.1000E-02  0.1000E-02
    -17.161  0.0000E+00  0.0000E+00  0.1000E-02  0.1000E-02
    -16.994  0.0000E+00  0.0000E+00  0.1000E-02  0.1000E-02
    -16.826  0.0000E+00  0.0000E+00  0.1000E-02  0.1000E-02
    -16.658  0.0000E+00  0.0000E+00  0.1000E-02  0.1000E-02
    -16.491  0.0000E+00  0.0000E+00  0.1000E-02  0.1000E-02
    -16.323  0.0000E+00  0.0000E+00  0.1000E-02  0.1000E-02
    -16.156  0.0000E+00  0.0000E+00  0.1000E-02  0.1000E-02
    -15.988  0.0000E+00  0.0000E+00  0.1000E-02  0.1000E-02
    -15.820  0.0000E+00  0.0000E+00  0.1000E-02  0.1000E-02
    -15.653  0.0000E+00  0.0000E+00  0.1000E-02  0.1000E-02
    -15.485  0.0000E+00  0.0000E+00  0.1000E-02  0.1000E-02
    -15.317  0.0000E+00  0.0000E+00  0.1000E-02  0.1000E-02
    -15.150  0.0000E+00  0.0000E+00  0.1000E-02  0.1000E-02
    -14.982  0.0000E+00  0.0000E+00  0.1000E-02  0.1000E-02
    -14.814  0.0000E+00  0.0000E+00  0.1000E-02  0.1000E-02
    -14.647  0.0000E+00  0.0000E+00  0.1000E-02  0.1000E-02
    -14.479  0.0000E+00  0.0000E+00  0.1000E-02  0.1000E-02
    -14.312  0.0000E+00  0.0000E+00  0.1000E-02  0.1000E-02
    -14.144  0.0000E+00  0.0000E+00  0.1000E-02  0.1000E-02
    -13.976  0.0000E+00  0.0000E+00  0.1000E-02  0.1000E-02
    -13.809  0.0000E+00  0.0000E+00  0.1000E-02  0.1000E-02
    -13.641  0.0000E+00  0.0000E+00  0.1000E-02  0.1000E-02
    -13.473  0.0000E+00  0.0000E+00  0.1000E-02  0.1000E-02
    -13.306  0.0000E+00  0.0000E+00  0.1000E-02  0.1000E-02
    -13.138  0.0000E+00  0.0000E+00  0.1000E-02  0.1000E-02
    -12.970  0.0000E+00  0.0000E+00  0.1000E-02  0.1000E-02
    -12.803  0.0000E+00  0.0000E+00  0.1000E-02  0.1000E-02
    -12.635  0.0000E+00  0.0000E+00  0.1000E-02  0.1000E-02
    -12.468  0.0000E+00  0.0000E+00  0.1000E-02  0.1000E-02
    -12.300  0.0000E+00  0.0000E+00  0.1000E-02  0.1000E-02
    -12.132  0.0000E+00  0.0000E+00  0.1000E-02  0.1000E-02
    -11.965 -0.9582E-34  0.0000E+00  0.1000E-02  0.1000E-02
    -11.797 -0.1587E-22  0.0000E+00  0.1000E-02  0.1000E-02
    -11.629 -0.8652E-14  0.0000E+00  0.1000E-02  0.1000E-02
    -11.462 -0.1526E-07  0.0000E+00  0.1000E-02  0.1000E-02
    -11.294 -0.6451E-04  0.0000E+00  0.9892E-03  0.1000E-02
    -11.126  0.1938E-02 -0.2906E-31  0.1314E-02  0.1000E-02
    -10.959  0.4270E-02 -0.1519E-20  0.2030E-02  0.1000E-02
    -10.791 -0.1775E-03 -0.2582E-12  0.2000E-02  0.1000E-02
    -10.624 -0.2695E-06 -0.1387E-06  0.2000E-02  0.1000E-02
    -10.456 -0.7407E-12 -0.1481E-03  0.2000E-02  0.9751E-03
    -10.288  0.0000E+00  0.3707E-02  0.2000E-02  0.1597E-02
    -10.121  0.0000E+00  0.2494E-02  0.2000E-02  0.2015E-02
     -9.953  0.0000E+00 -0.8804E-04  0.2000E-02  0.2000E-02
     -9.785  0.0000E+00 -0.3215E-07  0.2000E-02  0.2000E-02
     -9.618  0.0000E+00 -0.2682E-13  0.2000E-02  0.2000E-02
     -9.450  0.0000E+00  0.0000E+00  0.2000E-02  0.2000E-02
     -9.282  0.0000E+00  0.0000E+00  0.2000E-02  0.2000E-02
     -9.115  0.0000E+00  0.0000E+00  0.2000E-02  0.2000E-02
     -8.947  0.0000E+00  0.0000E+00  0.2000E-02  0.2000E-02
     -8.780  0.0000E+00  0.0000E+00  0.2000E-02  0.2000E-02
     -8.612 -0.1542E-41  0.0000E+00  0.2000E-02  0.2000E-02
     -8.444 -0.7276E-29  0.0000E+00  0.2000E-02  0.2000E-02
     -8.277 -0.1188E-18 -0.4658E-42  0.2000E-02  0.2000E-02
     -8.109 -0.6217E-11 -0.2714E-29  0.2000E-02  0.2000E-02
     -7.941 -0.9956E-06 -0.5476E-19  0.2000E-02  0.2000E-02
     -7.774 -0.2105E-03 -0.3551E-11  0.1965E-02  0.2000E-02
     -7.606  0.5262E-02 -0.7092E-06  0.2847E-02  0.2000E-02
     -7.438  0.9450E-03 -0.2082E-03  0.3005E-02  0.1965E-02
     -7.271 -0.3008E-04  0.5029E-02  0.3000E-02  0.2808E-02
     -7.103 -0.2938E-08  0.1183E-02  0.3000E-02  0.3006E-02
     -6.936 -0.4229E-06 -0.3744E-04  0.3000E-02  0.3000E-02
     -6.768 -0.1948E-03 -0.4622E-08  0.2967E-02  0.3000E-02
     -6.600  0.4636E-02 -0.1453E-14  0.3744E-02  0.3000E-02
     -6.433  0.1575E-02  0.0000E+00  0.4009E-02  0.3000E-02
     -6.265 -0.5079E-04 -0.1188E-41  0.4000E-02  0.3000E-02
     -6.097 -0.8902E-08 -0.5869E-29  0.4000E-02  0.3000E-02
     -5.930 -0.3853E-14 -0.1004E-18  0.4000E-02  0.3000E-02
     -5.762  0.0000E+00 -0.5504E-11  0.4000E-02  0.3000E-02
     -5.594 -0.7780E-35 -0.9251E-06  0.4000E-02  0.3000E-02
     -5.427 -0.2109E-23 -0.2106E-03  0.4000E-02  0.2965E-02
     -5.259 -0.1888E-14  0.5213E-02  0.4000E-02  0.3838E-02
     -5.091 -0.5516E-08  0.9951E-03  0.4000E-02  0.4005E-02
     -4.924 -0.4071E-04 -0.3158E-04  0.3993E-02  0.4000E-02
     -4.756  0.1283E-02 -0.3245E-08  0.4208E-02  0.4000E-02
     -4.589  0.4929E-02 -0.1274E-06  0.5035E-02  0.4000E-02
     -4.421 -0.2056E-03 -0.1443E-03  0.5000E-02  0.3976E-02
     -4.253 -0.6188E-06  0.3635E-02  0.5000E-02  0.4585E-02
     -4.086 -0.2839E-11  0.2566E-02  0.5000E-02  0.5015E-02
     -3.918  0.0000E+00 -0.9128E-04  0.5000E-02  0.5000E-02
     -3.750  0.0000E+00 -0.3521E-07  0.5000E-02  0.5000E-02
     -3.583  0.0000E+00 -0.3082E-13  0.5000E-02  0.5000E-02
     -3.415  0.0000E+00  0.0000E+00  0.5000E-02  0.5000E-02
     -3.247  0.0000E+00  0.0000E+00  0.5000E-02  0.5000E-02
     -3.080  0.0000E+00  0.0000E+00  0.5000E-02  0.5000E-02
     -2.912  0.0000E+00  0.0000E+00  0.5000E-02  0.5000E-02
     -2.745  0.0000E+00  0.0000E+00  0.5000E-02  0.5000E-02
     -2.577  0.0000E+00  0.0000E+00  0.5000E-02  0.5000E-02
     -2.409  0.0000E+00  0.0000E+00  0.5000E-02  0.5000E-02
     -2.242  0.0000E+00  0.0000E+00  0.5000E-02  0.5000E-02
     -2.074  0.0000E+00  0.0000E+00  0.5000E-02  0.5000E-02
     -1.906  0.0000E+00  0.0000E+00  0.5000E-02  0.5000E-02
     -1.739  0.0000E+00  0.0000E+00  0.5000E-02  0.5000E-02
     -1.571  0.0000E+00  0.0000E+00  0.5000E-02  0.5000E-02
     -1.403  0.0000E+00  0.0000E+00  0.5000E-02  0.5000E-02
     -1.236  0.0000E+00  0.0000E+00  0.5000E-02  0.5000E-02
     -1.068  0.0000E+00  0.0000E+00  0.5000E-02  0.5000E-02
     -0.901  0.0000E+00  0.0000E+00  0.5000E-02  0.5000E-02
     -0.733  0.0000E+00  0.0000E+00  0.5000E-02  0.5000E-02
     -0.565  0.0000E+00  0.0000E+00  0.5000E-02  0.5000E-02
     -0.398  0.0000E+00  0.0000E+00  0.5000E-02  0.5000E-02
     -0.230  0.0000E+00  0.0000E+00  0.5000E-02  0.5000E-02
     -0.062  0.0000E+00  0.0000E+00  0.5000E-02  0.5000E-02
      0.105  0.0000E+00  0.0000E+00  0.5000E-02  0.5000E-02
      0.273  0.0000E+00  0.0000E+00  0.5000E-02  0.5000E-02
      0.441 -0.6943E-34  0.0000E+00  0.5000E-02  0.5000E-02
      0.608 -0.1226E-22  0.0000E+00  0.5000E-02  0.5000E-02
      0.776 -0.7124E-14  0.0000E+00  0.5000E-02  0.5000E-02
      0.943 -0.1341E-07  0.0000E+00  0.5000E-02  0.5000E-02
      1.111 -0.6098E-04  0.0000E+00  0.4990E-02  0.5000E-02
      1.279  0.1848E-02  0.0000E+00  0.5300E-02  0.5000E-02
      1.446  0.4361E-02  0.0000E+00  0.6031E-02  0.5000E-02
      1.614 -0.1820E-03  0.0000E+00  0.6000E-02  0.5000E-02
      1.782 -0.3009E-06  0.0000E+00  0.6000E-02  0.5000E-02
      1.949 -0.2209E-09 -0.1006E-37  0.6000E-02  0.5000E-02
      2.117 -0.7798E-05 -0.9652E-26  0.5999E-02  0.5000E-02
      2.285  0.7286E-04 -0.3087E-16  0.6011E-02  0.5000E-02
      2.452  0.5947E-02 -0.3289E-09  0.7008E-02  0.5000E-02
      2.620 -0.4115E-04 -0.9705E-05  0.7001E-02  0.4998E-02
      2.787 -0.5348E-05  0.1595E-03  0.7000E-02  0.5025E-02
      2.955 -0.1115E-09  0.5913E-02  0.7000E-02  0.6016E-02
      3.123 -0.6623E-17 -0.1996E-03  0.7000E-02  0.5983E-02
      3.290  0.0000E+00  0.2886E-02  0.7000E-02  0.6467E-02
      3.458  0.0000E+00  0.3309E-02  0.7000E-02  0.7021E-02
      3.626  0.0000E+00 -0.1274E-03  0.7000E-02  0.7000E-02
      3.793  0.0000E+00 -0.8691E-07  0.7000E-02  0.7000E-02
      3.961  0.0000E+00 -0.1243E-12  0.7000E-02  0.7000E-02
      4.129  0.0000E+00  0.0000E+00  0.7000E-02  0.7000E-02
      4.296  0.0000E+00  0.0000E+00  0.7000E-02  0.7000E-02
      4.464  0.0000E+00  0.0000E+00  0.7000E-02  0.7000E-02
      4.631  0.0000E+00  0.0000E+00  0.7000E-02  0.7000E-02
      4.799  0.0000E+00  0.0000E+00  0.7000E-02  0.7000E-02
      4.967  0.0000E+00  0.0000E+00  0.7000E-02  0.7000E-02
      5.134  0.0000E+00  0.0000E+00  0.7000E-02  0.7000E-02
      5.302  0.0000E+00  0.0000E+00  0.7000E-02  0.7000E-02
      5.470  0.0000E+00  0.0000E+00  0.7000E-02  0.7000E-02
      5.637  0.0000E+00  0.0000E+00  0.7000E-02  0.7000E-02
      5.805  0.0000E+00  0.0000E+00  0.7000E-02  0.7000E-02
      5.973  0.0000E+00  0.0000E+00  0.7000E-02  0.7000E-02
      6.140  0.0000E+00  0.0000E+00  0.7000E-02  0.7000E-02
      6.308  0.0000E+00  0.0000E+00  0.7000E-02  0.7000E-02
      6.475  0.0000E+00  0.0000E+00  0.7000E-02  0.7000E-02
      6.643  0.0000E+00  0.0000E+00  0.7000E-02  0.7000E-02
      6.811  0.0000E+00  0.0000E+00  0.7000E-02  0.7000E-02
      6.978  0.0000E+00  0.0000E+00  0.7000E-02  0.7000E-02
      7.146  0.0000E+00  0.0000E+00  0.7000E-02  0.7000E-02
      7.314  0.0000E+00  0.0000E+00  0.7000E-02  0.7000E-02
      7.481  0.0000E+00  0.0000E+00  0.7000E-02  0.7000E-02
      7.649  0.0000E+00  0.0000E+00  0.7000E-02  0.7000E-02
      7.817  0.0000E+00  0.0000E+00  0.7000E-02  0.7000E-02
      7.984  0.0000E+00  0.0000E+00  0.7000E-02  0.7000E-02
      8.152  0.0000E+00  0.0000E+00  0.7000E-02  0.7000E-02
      8.320  0.0000E+00  0.0000E+00  0.7000E-02  0.7000E-02
      8.487  0.0000E+00  0.0000E+00  0.7000E-02  0.7000E-02
      8.655  0.0000E+00  0.0000E+00  0.7000E-02  0.7000E-02
      8.822  0.0000E+00  0.0000E+00  0.7000E-02  0.7000E-02
      8.990  0.0000E+00  0.0000E+00  0.7000E-02  0.7000E-02
      9.158  0.0000E+00  0.0000E+00  0.7000E-02  0.7000E-02
      9.325  0.0000E+00  0.0000E+00  0.7000E-02  0.7000E-02
      9.493  0.0000E+00  0.0000E+00  0.7000E-02  0.7000E-02
      9.661  0.0000E+00  0.0000E+00  0.7000E-02  0.7000E-02
      9.828  0.0000E+00  0.0000E+00  0.7000E-02  0.7000E-02
      9.996 -0.3329E-31  0.0000E+00  0.7000E-02  0.7000E-02
     10.164 -0.1692E-20  0.0000E+00  0.7000E-02  0.7000E-02
     10.331 -0.2796E-12  0.0000E+00  0.7000E-02  0.7000E-02
     10.499 -0.1459E-06 -0.6300E-33  0.7000E-02  0.7000E-02
     10.666 -0.1504E-03 -0.7175E-22  0.6975E-02  0.7000E-02
     10.834  0.3750E-02 -0.2678E-13  0.7603E-02  0.7000E-02
     11.002  0.2451E-02 -0.3213E-07  0.8014E-02  0.7000E-02
     11.169 -0.8613E-04 -0.8801E-04  0.8000E-02  0.6985E-02
     11.337 -0.3044E-07  0.2494E-02  0.8000E-02  0.7403E-02
     11.505 -0.2467E-13  0.3708E-02  0.8000E-02  0.8025E-02
     11.672  0.0000E+00 -0.1482E-03  0.8000E-02  0.8000E-02
     11.840  0.0000E+00 -0.1388E-06  0.8000E-02  0.8000E-02
     12.008  0.0000E+00 -0.2585E-12  0.8000E-02  0.8000E-02
     12.175  0.0000E+00  0.0000E+00  0.8000E-02  0.8000E-02
     12.343  0.0000E+00  0.0000E+00  0.8000E-02  0.8000E-02
     12.510  0.0000E+00  0.0000E+00  0.8000E-02  0.8000E-02
     12.678  0.0000E+00  0.0000E+00  0.8000E-02  0.8000E-02
     12.846  0.0000E+00  0.0000E+00  0.8000E-02  0.8000E-02
     13.013  0.0000E+00  0.0000E+00  0.8000E-02  0.8000E-02
     13.181  0.0000E+00  0.0000E+00  0.8000E-02  0.8000E-02
     13.349 -0.7026E-32  0.0000E+00  0.8000E-02  0.8000E-02
     13.516 -0.4914E-21  0.0000E+00  0.8000E-02  0.8000E-02
     13.684 -0.1121E-12 -0.7026E-34  0.8000E-02  0.8000E-02
     13.852 -0.8134E-07 -0.1238E-22  0.8000E-02  0.8000E-02
     14.019 -0.1245E-03 -0.7175E-14  0.7979E-02  0.8000E-02
     14.187  0.3253E-02 -0.1347E-07  0.8525E-02  0.8000E-02
     14.354  0.2946E-02 -0.6111E-04  0.9018E-02  0.7990E-02
     14.522 -0.1092E-03  0.1851E-02  0.9000E-02  0.8300E-02
     14.690 -0.5629E-07  0.4358E-02  0.9000E-02  0.9031E-02
     14.857 -0.6337E-13 -0.1819E-03  0.9000E-02  0.9000E-02
     15.025 -0.4647E-37 -0.2997E-06  0.9000E-02  0.9000E-02
     15.193 -0.3350E-25 -0.8776E-12  0.9000E-02  0.9000E-02
     15.360 -0.8032E-16  0.0000E+00  0.9000E-02  0.9000E-02
     15.528 -0.6389E-09 -0.1962E-32  0.9000E-02  0.9000E-02
     15.696 -0.1384E-04 -0.1778E-21  0.8998E-02  0.9000E-02
     15.863  0.3385E-03 -0.5268E-13  0.9054E-02  0.9000E-02
     16.031  0.5799E-02 -0.4993E-07  0.1003E-01  0.9000E-02
     16.198 -0.1561E-03 -0.1044E-03  0.1000E-01  0.8982E-02
     16.366 -0.2814E-05  0.2847E-02  0.1000E-01  0.9460E-02
     16.534 -0.3611E-10  0.3352E-02  0.1000E-01  0.1002E-01
     16.701 -0.1325E-17 -0.1296E-03  0.1000E-01  0.1000E-01
     16.869  0.0000E+00 -0.9142E-07  0.1000E-01  0.1000E-01
     17.037  0.0000E+00 -0.1344E-12  0.1000E-01  0.1000E-01
     17.204  0.0000E+00  0.0000E+00  0.1000E-01  0.1000E-01
     17.372  0.0000E+00  0.0000E+00  0.1000E-01  0.1000E-01
     17.540  0.0000E+00  0.0000E+00  0.1000E-01  0.1000E-01
     17.707  0.0000E+00  0.0000E+00  0.1000E-01  0.1000E-01
     17.875  0.0000E+00  0.0000E+00  0.1000E-01  0.1000E-01
     18.042  0.0000E+00  0.0000E+00  0.1000E-01  0.1000E-01
     18.210 -0.2790E-34  0.0000E+00  0.1000E-01  0.1000E-01
     18.378 -0.5893E-23  0.0000E+00  0.1000E-01  0.1000E-01
     18.545 -0.4104E-14 -0.1239E-29  0.1000E-01  0.1000E-01
     18.713 -0.9286E-08 -0.2954E-19  0.1000E-01  0.1000E-01
     18.881 -0.5177E-04 -0.2269E-11  0.9991E-02  0.1000E-01
     19.048  0.1602E-02 -0.5394E-06  0.1026E-01  0.1000E-01
     19.216  0.4609E-02 -0.2023E-03  0.1103E-01  0.9966E-02
     19.384 -0.1936E-03  0.4826E-02  0.1100E-01  0.1077E-01
     19.551 -0.1725E-05  0.1387E-02  0.1100E-01  0.1101E-01
     19.719 -0.2066E-03 -0.4419E-04  0.1097E-01  0.1100E-01
     19.886  0.5435E-02 -0.6573E-08  0.1188E-01  0.1100E-01
     20.054  0.7627E-03 -0.2593E-14  0.1200E-01  0.1100E-01
     20.222 -0.2482E-04 -0.9501E-09  0.1200E-01  0.1100E-01
     20.389 -0.1991E-08 -0.1703E-04  0.1200E-01  0.1100E-01
     20.557 -0.4199E-15  0.4688E-03  0.1200E-01  0.1108E-01
     20.725  0.0000E+00  0.5697E-02  0.1200E-01  0.1203E-01
     20.892  0.0000E+00 -0.1812E-03  0.1200E-01  0.1200E-01
     21.060  0.0000E+00 -0.2178E-05  0.1200E-01  0.1200E-01
     21.228  0.0000E+00 -0.2325E-10  0.1200E-01  0.1200E-01
     21.395  0.0000E+00 -0.1325E-17  0.1200E-01  0.1200E-01
     21.563  0.0000E+00  0.0000E+00  0.1200E-01  0.1200E-01
     21.731  0.0000E+00  0.0000E+00  0.1200E-01  0.1200E-01
     21.898  0.0000E+00  0.0000E+00  0.1200E-01  0.1200E-01
     22.066  0.0000E+00  0.0000E+00  0.1200E-01  0.1200E-01
     22.233  0.0000E+00  0.0000E+00  0.1200E-01  0.1200E-01
     22.401  0.0000E+00  0.0000E+00  0.1200E-01  0.1200E-01
     22.569  0.0000E+00  0.0000E+00  0.1200E-01  0.1200E-01
     22.736  0.0000E+00  0.0000E+00  0.1200E-01  0.1200E-01
     22.904  0.0000E+00  0.0000E+00  0.1200E-01  0.1200E-01
