    2    2 1000    2
  0.1200000E+02  0.2000000E-09  0.3000000E-09  0.4000000E-09  0.5000000E-15
  1.000000000000000E-004
  CAR 
 unknown system                          
     11      1     12
 
  0.2500000E+00  0.2500000E+00  0.0000000E+00  0.1000000E+01
    1      -25.101329    -24.623739   1.000000   1.000000
    2      -11.103850    -10.299767   1.000000   1.000000
    3       -7.651942     -7.310418   1.000000   1.000000
    4       -6.630630     -5.303650   1.000000   1.000000
    5       -4.719064     -4.263434   1.000000   1.000000
    6        1.303212      2.862058   1.000000  -0.000000
    7        2.364182      3.294329  -0.000000  -0.000000
    8       10.821737     11.348497   0.000000   0.000000
    9       14.183922     14.546510   0.000000   0.000000
   10       15.929312     16.370867   0.000000   0.000000
   11       19.078097     19.348886   0.000000   0.000000
   12       19.835353     20.618006   0.000000   0.000000
