unknown system                          
           1
     2.000000    0.000000    0.000000
     0.000000    3.000000    0.000000
     0.000000    0.000000    4.000000
   N    O 
   1   1
Direct configuration=     1
   0.50000000  0.50000000  0.56044028
   0.50000000  0.50000000  0.26193626
Direct configuration=     2
   0.50000000  0.50000000  0.55418929
   0.50000000  0.50000000  0.26818725
Direct configuration=     3
   0.50000000  0.50000000  0.55967097
   0.50000000  0.50000000  0.26270557
